{"type":"data","nodes":[null,{"type":"data","data":[{"element":1},{"name":2,"appearance":3,"atomic_mass":4,"category":5,"density":6,"discoverer":7,"molar_heat":8,"number":9,"period":10,"phase":11,"spectral_img":12,"summary":13,"symbol":14,"shells":15,"electron_configuration":21,"electron_configuration_semantic":22,"electron_affinity":23,"electronegativity_pauling":24,"ionization_energies":25,"cpk-hex":32,"row":10,"column":33,"neutrons":34,"protons":9,"electrons":9,"radioactive":35,"natural":36,"metal":36,"nonmetal":35,"metalloid":35,"atomic_radius":37,"electronegativity":24,"first_ionization":38,"melting_point":39,"boiling_point":40,"number_of_isotopes":41,"year":42,"specific_heat":43,"n_shells":10,"n_valence":20,"covalent_radius":44},"Bismuth","lustrous silver",208.980401,"post-transition metal",9.78,"Claude François Geoffroy",25.52,83,6,"Solid",null,"Bismuth is a chemical element with symbol Bi and atomic number 83. Bismuth, a pentavalent post-transition metal, chemically resembles arsenic and antimony. Elemental bismuth may occur naturally, although its sulfide and oxide form important commercial ores.","Bi",[16,17,18,19,18,20],2,8,18,32,5,"1s2 2s2 2p6 3s2 3p6 4s2 3d10 4p6 5s2 4d10 5p6 6s2 4f14 5d10 6p3","[Xe] 4f14 5d10 6s2 6p3",90.924,2.02,[26,27,28,29,30,31],703,1610,2466,4370,5400,8520,"9e4fb5",15,126,false,true,1.6,7.2856,544.67,1837,19,1753,0.122,1.48],"uses":{"params":["slug"]}}]}
