{"type":"data","nodes":[null,{"type":"data","data":[{"element":1},{"name":2,"appearance":3,"atomic_mass":4,"category":5,"density":6,"discoverer":7,"molar_heat":8,"number":9,"period":10,"phase":11,"spectral_img":12,"summary":13,"symbol":14,"shells":15,"electron_configuration":21,"electron_configuration_semantic":22,"electron_affinity":23,"electronegativity_pauling":24,"ionization_energies":25,"cpk-hex":28,"row":10,"column":29,"neutrons":30,"protons":9,"electrons":9,"radioactive":31,"natural":32,"metal":32,"nonmetal":31,"metalloid":31,"atomic_radius":33,"electronegativity":24,"first_ionization":34,"melting_point":35,"boiling_point":36,"number_of_isotopes":37,"year":38,"specific_heat":39,"n_shells":10,"n_valence":12,"covalent_radius":40},"Iridium","silvery white",192.2173,"transition metal",22.56,"Smithson Tennant",25.1,77,6,"Solid",null,"Iridium is a chemical element with symbol Ir and atomic number 77. A very hard, brittle, silvery-white transition metal of the platinum group, iridium is generally credited with being the second densest element (after osmium) based on measured density, although calculations involving the space lattices of the elements show that iridium is denser. It is also the most corrosion-resistant metal, even at temperatures as high as 2000 °C. Although only certain molten salts and halogens are corrosive to solid iridium, finely divided iridium dust is much more reactive and can be flammable.","Ir",[16,17,18,19,20,16],2,8,18,32,15,"1s2 2s2 2p6 3s2 3p6 4s2 3d10 4p6 5s2 4d10 5p6 6s2 4f14 5d7","[Xe] 4f14 5d7 6s2",150.94,2.2,[26,27],880,1600,"175487",9,115,false,true,1.9,8.967,2716.15,4701,25,1804,0.131,1.41],"uses":{"params":["slug"]}}]}
