{"type":"data","nodes":[null,{"type":"data","data":[{"element":1},{"name":2,"appearance":3,"atomic_mass":4,"category":5,"density":6,"discoverer":7,"molar_heat":8,"number":9,"period":10,"phase":11,"spectral_img":12,"summary":13,"symbol":14,"shells":15,"electron_configuration":18,"electron_configuration_semantic":19,"electron_affinity":20,"electronegativity_pauling":21,"ionization_energies":22,"cpk-hex":35,"row":10,"column":16,"neutrons":9,"protons":9,"electrons":9,"radioactive":36,"natural":37,"metal":37,"nonmetal":36,"metalloid":36,"atomic_radius":38,"electronegativity":21,"first_ionization":39,"melting_point":40,"boiling_point":41,"number_of_isotopes":17,"year":42,"specific_heat":43,"n_shells":10,"n_valence":16,"covalent_radius":44},"Magnesium","shiny grey solid",24.305,"alkaline earth metal",1.738,"Joseph Black",24.869,12,3,"Solid","https://wikipedia.org/wiki/File:Magnesium_Spectra.jpg","Magnesium is a chemical element with symbol Mg and atomic number 12. It is a shiny gray solid which bears a close physical resemblance to the other five elements in the second column (Group 2, or alkaline earth metals) of the periodic table:they each have the same electron configuration in their outer electron shell producing a similar crystal structure. Magnesium is the ninth most abundant element in the universe.","Mg",[16,17,16],2,8,"1s2 2s2 2p6 3s2","[Ne] 3s2",-40,1.31,[23,24,25,26,27,28,29,30,31,32,33,34],737.7,1450.7,7732.7,10542.5,13630,18020,21711,25661,31653,35458,169988,189368,"8aff00",false,true,1.7,7.6462,923.15,1363,1755,1.023,1.41],"uses":{"params":["slug"]}}]}
