{"type":"data","nodes":[null,{"type":"data","data":[{"element":1},{"name":2,"appearance":3,"atomic_mass":4,"category":5,"density":6,"discoverer":7,"molar_heat":8,"number":9,"period":10,"phase":11,"spectral_img":12,"summary":13,"symbol":14,"shells":15,"electron_configuration":19,"electron_configuration_semantic":20,"electron_affinity":21,"electronegativity_pauling":22,"ionization_energies":23,"cpk-hex":27,"row":10,"column":18,"neutrons":28,"protons":9,"electrons":9,"radioactive":29,"natural":30,"metal":29,"nonmetal":30,"metalloid":29,"atomic_radius":31,"electronegativity":8,"first_ionization":32,"melting_point":33,"boiling_point":34,"number_of_isotopes":35,"year":36,"specific_heat":37,"n_shells":10,"n_valence":17,"covalent_radius":38},"Xenon","colorless gas, exhibiting a blue glow when placed in a high voltage electric field",131.2936,"noble gas",0.005894,"William Ramsay",null,54,5,"Gas","https://wikipedia.org/wiki/File:Xenon_Spectrum.jpg","Xenon is a chemical element with symbol Xe and atomic number 54. It is a colorless, dense, odorless noble gas, that occurs in the Earth's atmosphere in trace amounts. Although generally unreactive, xenon can undergo a few chemical reactions such as the formation of xenon hexafluoroplatinate, the first noble gas compound to be synthesized.","Xe",[16,17,18,18,17],2,8,18,"1s2 2s2 2p6 3s2 3p6 4s2 3d10 4p6 5s2 4d10 5p6","[Kr] 4d10 5s2 5p6",-77,2.6,[24,25,26],1170.4,2046.4,3099.4,"429eb0",77,false,true,1.2,12.1298,161.45,165.03,31,1898,0.158,1.4],"uses":{"params":["slug"]}}]}
