{"type":"data","nodes":[null,{"type":"data","data":[{"element":1},{"name":2,"appearance":3,"atomic_mass":4,"category":5,"density":6,"discoverer":7,"molar_heat":3,"number":8,"period":9,"phase":10,"spectral_img":3,"summary":11,"symbol":12,"shells":13,"electron_configuration":18,"electron_configuration_semantic":19,"electron_affinity":20,"electronegativity_pauling":3,"ionization_energies":21,"cpk-hex":3,"row":9,"column":16,"neutrons":22,"protons":8,"electrons":8,"radioactive":23,"natural":3,"metal":24,"nonmetal":23,"metalloid":24,"atomic_radius":3,"electronegativity":3,"first_ionization":3,"melting_point":3,"boiling_point":3,"number_of_isotopes":3,"year":25,"specific_heat":3,"n_shells":9,"n_valence":15,"covalent_radius":3},"Oganesson",null,294,"noble gas",4.95,"Joint Institute for Nuclear Research",118,7,"Solid","Oganesson is IUPAC's name for the transactinide element with the atomic number 118 and element symbol Og. It is also known as eka-radon or element 118, and on the periodic table of the elements it is a p-block element and the last one of the 7th period. Oganesson is currently the only synthetic member of group 18.","Og",[14,15,16,17,17,16,15],2,8,18,32,"1s2 2s2 2p6 3s2 3p6 4s2 3d10 4p6 5s2 4d10 5p6 6s2 4f14 5d10 6p6 7s2 5f14 6d10 7p6","*[Rn] 5f14 6d10 7s2 7p6",5.40318,[],176,true,false,2006],"uses":{"params":["slug"]}}]}
