{"type":"data","nodes":[null,{"type":"data","data":[{"element":1},{"name":2,"appearance":3,"atomic_mass":4,"category":5,"density":6,"discoverer":7,"molar_heat":8,"number":9,"period":10,"phase":11,"spectral_img":12,"summary":13,"symbol":14,"shells":15,"electron_configuration":20,"electron_configuration_semantic":21,"electron_affinity":22,"electronegativity_pauling":23,"ionization_energies":24,"cpk-hex":28,"row":10,"column":29,"neutrons":30,"protons":9,"electrons":9,"radioactive":31,"natural":12,"metal":31,"nonmetal":32,"metalloid":32,"atomic_radius":16,"electronegativity":23,"first_ionization":33,"melting_point":34,"boiling_point":35,"number_of_isotopes":36,"year":37,"specific_heat":12,"n_shells":10,"n_valence":12,"covalent_radius":38},"Technetium","shiny gray metal",98,"transition metal",11,"Emilio Segrè",24.27,43,5,"Solid",null,"Technetium (/tɛkˈniːʃiəm/) is a chemical element with symbol Tc and atomic number 43. It is the element with the lowest atomic number in the periodic table that has no stable isotopes:every form of it is radioactive. Nearly all technetium is produced synthetically, and only minute amounts are found in nature.","Tc",[16,17,18,19,16],2,8,18,13,"1s2 2s2 2p6 3s2 3p6 4s2 3d10 4p6 5s2 4d5","[Kr] 4d5 5s2",53,1.9,[25,26,27],702,1470,2850,"3b9e9e",7,55,true,false,7.28,2473.15,5150,23,1937,1.47],"uses":{"params":["slug"]}}]}
