{"type":"data","nodes":[null,{"type":"data","data":[{"element":1},{"name":2,"appearance":3,"atomic_mass":4,"category":5,"density":6,"discoverer":7,"molar_heat":8,"number":9,"period":10,"phase":11,"spectral_img":8,"summary":12,"symbol":13,"shells":14,"electron_configuration":20,"electron_configuration_semantic":21,"electron_affinity":22,"electronegativity_pauling":23,"ionization_energies":24,"cpk-hex":26,"row":27,"column":28,"neutrons":29,"protons":9,"electrons":9,"radioactive":30,"natural":8,"metal":30,"nonmetal":31,"metalloid":31,"atomic_radius":8,"electronegativity":23,"first_ionization":32,"melting_point":33,"boiling_point":34,"number_of_isotopes":35,"year":36,"specific_heat":8,"n_shells":10,"n_valence":8,"covalent_radius":8},"Berkelium","silvery",247,"actinide",14.78,"Lawrence Berkeley Laboratory",null,97,7,"Solid","Berkelium is a transuranic radioactive chemical element with symbol Bk and atomic number 97. It is a member of the actinide and transuranium element series. It is named after the city of Berkeley, California, the location of the University of California Radiation Laboratory where it was discovered in December 1949.","Bk",[15,16,17,18,19,16,15],2,8,18,32,27,"1s2 2s2 2p6 3s2 3p6 4s2 3d10 4p6 5s2 4d10 5p6 6s2 4f14 5d10 6p6 7s2 5f9","[Rn] 5f9 7s2",-165.24,1.3,[25],601,"8a4fe3",10,11,150,true,false,6.1979,1259.15,983,83,1949],"uses":{"params":["slug"]}}]}
