{"type":"data","nodes":[null,{"type":"data","data":[{"element":1},{"name":2,"appearance":3,"atomic_mass":4,"category":5,"density":6,"discoverer":7,"molar_heat":3,"number":8,"period":9,"phase":10,"spectral_img":3,"summary":11,"symbol":12,"shells":13,"electron_configuration":18,"electron_configuration_semantic":19,"electron_affinity":20,"electronegativity_pauling":21,"ionization_energies":22,"cpk-hex":24,"row":25,"column":26,"neutrons":27,"protons":8,"electrons":8,"radioactive":28,"natural":3,"metal":28,"nonmetal":29,"metalloid":29,"atomic_radius":3,"electronegativity":21,"first_ionization":30,"melting_point":31,"boiling_point":3,"number_of_isotopes":32,"year":33,"specific_heat":3,"n_shells":9,"n_valence":3,"covalent_radius":3},"Nobelium",null,259,"actinide",9.9,"Joint Institute for Nuclear Research",102,7,"Solid","Nobelium is a synthetic chemical element with symbol No and atomic number 102. It is named in honor of Alfred Nobel, the inventor of dynamite and benefactor of science. A radioactive metal, it is the tenth transuranic element and is the penultimate member of the actinide series.","No",[14,15,16,17,17,15,14],2,8,18,32,"1s2 2s2 2p6 3s2 3p6 4s2 3d10 4p6 5s2 4d10 5p6 6s2 4f14 5d10 6p6 7s2 5f14","[Rn] 5f14 7s2",-223.22,1.3,[23],642,"bd0d87",10,16,157,true,false,6.65,1100,73,1958],"uses":{"params":["slug"]}}]}
