{"type":"data","nodes":[null,{"type":"data","data":[{"element":1},{"name":2,"appearance":3,"atomic_mass":4,"category":5,"density":6,"discoverer":7,"molar_heat":3,"number":8,"period":9,"phase":10,"spectral_img":11,"summary":12,"symbol":13,"shells":14,"electron_configuration":16,"electron_configuration_semantic":17,"electron_affinity":18,"electronegativity_pauling":19,"ionization_energies":20,"cpk-hex":29,"row":9,"column":30,"neutrons":8,"protons":8,"electrons":8,"radioactive":31,"natural":32,"metal":31,"nonmetal":32,"metalloid":31,"atomic_radius":33,"electronegativity":19,"first_ionization":34,"melting_point":35,"boiling_point":36,"number_of_isotopes":8,"year":37,"specific_heat":38,"n_shells":9,"n_valence":15,"covalent_radius":39},"Oxygen",null,15.999,"diatomic nonmetal",0.001429,"Carl Scheele",8,2,"Gas","https://wikipedia.org/wiki/File:Oxygen_spectre.jpg","Oxygen is a chemical element with symbol O and atomic number 8. It is a member of the chalcogen group on the periodic table and is a highly reactive nonmetal and oxidizing agent that readily forms compounds (notably oxides) with most elements. By mass, oxygen is the third-most abundant element in the universe, after hydrogen and helium.","O",[9,15],6,"1s2 2s2 2p4","[He] 2s2 2p4",140.976,3.44,[21,22,23,24,25,26,27,28],1313.9,3388.3,5300.5,7469.2,10989.5,13326.5,71330,84078,"ff0d0d",16,false,true,0.65,13.6181,50.5,90.2,1774,0.918,0.66],"uses":{"params":["slug"]}}]}
