{"type":"data","nodes":[null,{"type":"data","data":[{"element":1},{"name":2,"appearance":3,"atomic_mass":4,"category":5,"density":6,"discoverer":7,"molar_heat":8,"number":9,"period":10,"phase":11,"spectral_img":12,"summary":13,"symbol":14,"shells":15,"electron_configuration":20,"electron_configuration_semantic":21,"electron_affinity":22,"electronegativity_pauling":23,"ionization_energies":24,"cpk-hex":30,"row":31,"column":32,"neutrons":33,"protons":9,"electrons":9,"radioactive":34,"natural":35,"metal":35,"nonmetal":34,"metalloid":34,"atomic_radius":36,"electronegativity":23,"first_ionization":37,"melting_point":38,"boiling_point":39,"number_of_isotopes":40,"year":41,"specific_heat":42,"n_shells":10,"n_valence":12,"covalent_radius":43},"Praseodymium","grayish white",140.907662,"lanthanide",6.77,"Carl Auer von Welsbach",27.2,59,6,"Solid",null,"Praseodymium is a chemical element with symbol Pr and atomic number 59. Praseodymium is a soft, silvery, malleable and ductile metal in the lanthanide group. It is valued for its magnetic, electrical, chemical, and optical properties.","Pr",[16,17,18,19,17,16],2,8,18,21,"1s2 2s2 2p6 3s2 3p6 4s2 3d10 4p6 5s2 4d10 5p6 6s2 4f3","[Xe] 4f3 6s2",93,1.13,[25,26,27,28,29],527,1020,2086,3761,5551,"d9ffc7",9,5,82,false,true,2.7,5.473,1204.15,3793,15,1885,0.193,2.03],"uses":{"params":["slug"]}}]}
