{"type":"data","nodes":[null,{"type":"data","data":[{"element":1},{"name":2,"appearance":3,"atomic_mass":4,"category":5,"density":6,"discoverer":7,"molar_heat":8,"number":9,"period":10,"phase":11,"spectral_img":3,"summary":12,"symbol":13,"shells":14,"electron_configuration":18,"electron_configuration_semantic":19,"electron_affinity":20,"electronegativity_pauling":21,"ionization_energies":22,"cpk-hex":34,"row":10,"column":15,"neutrons":35,"protons":9,"electrons":9,"radioactive":36,"natural":37,"metal":37,"nonmetal":36,"metalloid":36,"atomic_radius":38,"electronegativity":21,"first_ionization":39,"melting_point":40,"boiling_point":41,"number_of_isotopes":17,"year":42,"specific_heat":43,"n_shells":10,"n_valence":15,"covalent_radius":44},"Strontium",null,87.621,"alkaline earth metal",2.64,"William Cruickshank",26.4,38,5,"Solid","Strontium is a chemical element with symbol Sr and atomic number 38. An alkaline earth metal, strontium is a soft silver-white or yellowish metallic element that is highly reactive chemically. The metal turns yellow when it is exposed to air.","Sr",[15,16,17,16,15],2,8,18,"1s2 2s2 2p6 3s2 3p6 4s2 3d10 4p6 5s2","[Kr] 5s2",5.023,0.95,[23,24,25,26,27,28,29,30,31,32,33],549.5,1064.2,4138,5500,6910,8760,10230,11800,15600,17100,31270,"00ff00",50,false,true,2.5,5.6949,1042.15,1655,1808,0.301,1.95],"uses":{"params":["slug"]}}]}
