{"type":"data","nodes":[null,{"type":"data","data":[{"element":1},{"name":2,"appearance":3,"atomic_mass":4,"category":5,"density":6,"discoverer":7,"molar_heat":8,"number":9,"period":10,"phase":11,"spectral_img":12,"summary":13,"symbol":14,"shells":15,"electron_configuration":20,"electron_configuration_semantic":21,"electron_affinity":22,"electronegativity_pauling":16,"ionization_energies":23,"cpk-hex":27,"row":10,"column":28,"neutrons":29,"protons":9,"electrons":9,"radioactive":30,"natural":31,"metal":31,"nonmetal":30,"metalloid":30,"atomic_radius":32,"electronegativity":16,"first_ionization":33,"melting_point":34,"boiling_point":35,"number_of_isotopes":36,"year":37,"specific_heat":38,"n_shells":10,"n_valence":12,"covalent_radius":39},"Mercury","silvery",200.5923,"transition metal",13.534,"unknown, before 2000 BCE",27.983,80,6,"Liquid",null,"Mercury is a chemical element with symbol Hg and atomic number 80. It is commonly known as quicksilver and was formerly named hydrargyrum (/haɪˈdrɑːrdʒərəm/). A heavy, silvery d-block element, mercury is the only metallic element that is liquid at standard conditions for temperature and pressure; the only other element that is liquid under these conditions is bromine, though metals such as caesium, gallium, and rubidium melt just above room temperature.","Hg",[16,17,18,19,18,16],2,8,18,32,"1s2 2s2 2p6 3s2 3p6 4s2 3d10 4p6 5s2 4d10 5p6 6s2 4f14 5d10","[Xe] 4f14 5d10 6s2",-48,[24,25,26],1007.1,1810,3300,"b8b8d0",12,121,false,true,1.8,10.4375,234.43,630,26,"265 BC",0.14,1.32],"uses":{"params":["slug"]}}]}
