{"type":"data","nodes":[null,{"type":"data","data":[{"element":1},{"name":2,"appearance":3,"atomic_mass":4,"category":5,"density":6,"discoverer":7,"molar_heat":8,"number":9,"period":10,"phase":11,"spectral_img":12,"summary":13,"symbol":14,"shells":15,"electron_configuration":17,"electron_configuration_semantic":18,"electron_affinity":19,"electronegativity_pauling":20,"ionization_energies":21,"cpk-hex":25,"row":10,"column":16,"neutrons":26,"protons":9,"electrons":9,"radioactive":27,"natural":28,"metal":28,"nonmetal":27,"metalloid":27,"atomic_radius":29,"electronegativity":20,"first_ionization":30,"melting_point":31,"boiling_point":32,"number_of_isotopes":33,"year":34,"specific_heat":35,"n_shells":10,"n_valence":16,"covalent_radius":36},"Lithium","silvery-white",6.94,"alkali metal",0.534,"Johan August Arfwedson",24.86,3,2,"Solid",null,"Lithium (from Greek:λίθος lithos, \"stone\") is a chemical element with the symbol Li and atomic number 3. It is a soft, silver-white metal belonging to the alkali metal group of chemical elements. Under standard conditions it is the lightest metal and the least dense solid element.","Li",[10,16],1,"1s2 2s1","[He] 2s1",59.6326,0.98,[22,23,24],520.2,7298.1,11815,"cc80ff",4,false,true,2.1,5.3917,453.85,1615,5,1817,3.582,1.28],"uses":{"params":["slug"]}}]}
