{"type":"data","nodes":[null,{"type":"data","data":[{"element":1},{"name":2,"appearance":3,"atomic_mass":4,"category":5,"density":6,"discoverer":7,"molar_heat":8,"number":9,"period":10,"phase":11,"spectral_img":3,"summary":12,"symbol":13,"shells":14,"electron_configuration":18,"electron_configuration_semantic":19,"electron_affinity":20,"electronegativity_pauling":21,"ionization_energies":22,"cpk-hex":26,"row":10,"column":15,"neutrons":27,"protons":9,"electrons":9,"radioactive":28,"natural":29,"metal":29,"nonmetal":28,"metalloid":28,"atomic_radius":30,"electronegativity":21,"first_ionization":31,"melting_point":32,"boiling_point":33,"number_of_isotopes":34,"year":35,"specific_heat":36,"n_shells":10,"n_valence":15,"covalent_radius":37},"Barium",null,137.3277,"alkaline earth metal",3.51,"Carl Wilhelm Scheele",28.07,56,6,"Solid","Barium is a chemical element with symbol Ba and atomic number 56. It is the fifth element in Group 2, a soft silvery metallic alkaline earth metal. Because of its high chemical reactivity barium is never found in nature as a free element.","Ba",[15,16,17,17,16,15],2,8,18,"1s2 2s2 2p6 3s2 3p6 4s2 3d10 4p6 5s2 4d10 5p6 6s2","[Xe] 6s2",13.954,0.89,[23,24,25],502.9,965.2,3600,"00c900",81,false,true,2.8,5.2117,1002.15,2170,25,1808,0.204,2.15],"uses":{"params":["slug"]}}]}
