{"type":"data","nodes":[null,{"type":"data","data":[{"element":1},{"name":2,"appearance":3,"atomic_mass":4,"category":5,"density":6,"discoverer":7,"molar_heat":8,"number":9,"period":10,"phase":11,"spectral_img":12,"summary":13,"symbol":14,"shells":15,"electron_configuration":19,"electron_configuration_semantic":20,"electron_affinity":21,"electronegativity_pauling":22,"ionization_energies":23,"cpk-hex":45,"row":10,"column":46,"neutrons":47,"protons":9,"electrons":9,"radioactive":48,"natural":49,"metal":49,"nonmetal":48,"metalloid":48,"atomic_radius":50,"electronegativity":22,"first_ionization":51,"melting_point":52,"boiling_point":53,"number_of_isotopes":54,"year":55,"specific_heat":56,"n_shells":10,"n_valence":12,"covalent_radius":57},"Zinc","silver-gray",65.382,"transition metal",7.14,"India",25.47,30,4,"Solid",null,"Zinc, in commerce also spelter, is a chemical element with symbol Zn and atomic number 30. It is the first element of group 12 of the periodic table. In some respects zinc is chemically similar to magnesium:its ion is of similar size and its only common oxidation state is +2.","Zn",[16,17,18,16],2,8,18,"1s2 2s2 2p6 3s2 3p6 4s2 3d10","[Ar] 3d10 4s2",-58,1.65,[24,25,26,27,28,29,30,31,32,33,34,35,36,37,38,39,40,41,42,43,44],906.4,1733.3,3833,5731,7970,10400,12900,16800,19600,23000,26400,29990,40490,43800,47300,52300,55900,59700,67300,71200,179100,"7d80b0",12,35,false,true,1.5,9.3942,692.88,1180,15,1668,0.388,1.22],"uses":{"params":["slug"]}}]}
