{"type":"data","nodes":[null,{"type":"data","data":[{"element":1},{"name":2,"appearance":3,"atomic_mass":4,"category":5,"density":6,"discoverer":7,"molar_heat":8,"number":9,"period":10,"phase":11,"spectral_img":12,"summary":13,"symbol":14,"shells":15,"electron_configuration":20,"electron_configuration_semantic":21,"electron_affinity":22,"electronegativity_pauling":23,"ionization_energies":24,"cpk-hex":29,"row":30,"column":10,"neutrons":31,"protons":9,"electrons":9,"radioactive":32,"natural":33,"metal":33,"nonmetal":32,"metalloid":32,"atomic_radius":34,"electronegativity":23,"first_ionization":35,"melting_point":36,"boiling_point":37,"number_of_isotopes":38,"year":39,"specific_heat":40,"n_shells":10,"n_valence":12,"covalent_radius":41},"Neodymium","silvery white",144.2423,"lanthanide",7.01,"Carl Auer von Welsbach",27.45,60,6,"Solid",null,"Neodymium is a chemical element with symbol Nd and atomic number 60. It is a soft silvery metal that tarnishes in air. Neodymium was discovered in 1885 by the Austrian chemist Carl Auer von Welsbach.","Nd",[16,17,18,19,17,16],2,8,18,22,"1s2 2s2 2p6 3s2 3p6 4s2 3d10 4p6 5s2 4d10 5p6 6s2 4f4","[Xe] 4f4 6s2",184.87,1.14,[25,26,27,28],533.1,1040,2130,3900,"c7ffc7",9,84,false,true,2.6,5.525,1289.15,3347,16,1885,0.19,2.01],"uses":{"params":["slug"]}}]}
