{"type":"data","nodes":[null,{"type":"data","data":[{"element":1},{"name":2,"appearance":3,"atomic_mass":4,"category":5,"density":6,"discoverer":7,"molar_heat":8,"number":9,"period":10,"phase":11,"spectral_img":12,"summary":13,"symbol":14,"shells":15,"electron_configuration":20,"electron_configuration_semantic":21,"electron_affinity":22,"electronegativity_pauling":23,"ionization_energies":24,"cpk-hex":54,"row":10,"column":55,"neutrons":56,"protons":9,"electrons":9,"radioactive":57,"natural":58,"metal":58,"nonmetal":57,"metalloid":57,"atomic_radius":59,"electronegativity":23,"first_ionization":60,"melting_point":61,"boiling_point":62,"number_of_isotopes":55,"year":63,"specific_heat":64,"n_shells":10,"n_valence":12,"covalent_radius":65},"Copper","red-orange metallic luster",63.5463,"transition metal",8.96,"Middle East",24.44,29,4,"Solid",null,"Copper is a chemical element with symbol Cu (from Latin:cuprum) and atomic number 29. It is a soft, malleable and ductile metal with very high thermal and electrical conductivity. A freshly exposed surface of pure copper has a reddish-orange color.","Cu",[16,17,18,19],2,8,18,1,"1s2 2s2 2p6 3s2 3p6 4s1 3d10","[Ar] 3d10 4s1",119.235,1.9,[25,26,27,28,29,30,31,32,33,34,35,36,37,38,39,40,41,42,43,44,45,46,47,48,49,50,51,52,53],745.5,1957.9,3555,5536,7700,9900,13400,16000,19200,22400,25600,35600,38700,42000,46700,50200,53700,61100,64702,163700,174100,184900,198800,210500,222700,239100,249660,1067358,1116105,"c88033",11,35,false,true,1.6,7.7264,1357.75,2835,"~9000 BC",0.385,1.32],"uses":{"params":["slug"]}}]}
