{"type":"data","nodes":[null,{"type":"data","data":[{"element":1},{"name":2,"appearance":3,"atomic_mass":4,"category":5,"density":6,"discoverer":7,"molar_heat":8,"number":9,"period":10,"phase":11,"spectral_img":12,"summary":13,"symbol":14,"shells":15,"electron_configuration":21,"electron_configuration_semantic":22,"electron_affinity":23,"electronegativity_pauling":24,"ionization_energies":25,"cpk-hex":28,"row":10,"column":17,"neutrons":29,"protons":9,"electrons":9,"radioactive":30,"natural":31,"metal":31,"nonmetal":30,"metalloid":30,"atomic_radius":32,"electronegativity":24,"first_ionization":33,"melting_point":34,"boiling_point":35,"number_of_isotopes":36,"year":37,"specific_heat":38,"n_shells":10,"n_valence":12,"covalent_radius":39},"Osmium","silvery, blue cast",190.233,"transition metal",22.59,"Smithson Tennant",24.7,76,6,"Solid",null,"Osmium (from Greek osme (ὀσμή) meaning \"smell\") is a chemical element with symbol Os and atomic number 76. It is a hard, brittle, bluish-white transition metal in the platinum group that is found as a trace element in alloys, mostly in platinum ores. Osmium is the densest naturally occurring element, with a density of 22.59 g/cm^3.","Os",[16,17,18,19,20,16],2,8,18,32,14,"1s2 2s2 2p6 3s2 3p6 4s2 3d10 4p6 5s2 4d10 5p6 6s2 4f14 5d6","[Xe] 4f14 5d6 6s2",103.99,2.2,[26,27],840,1600,"266696",114,false,true,1.9,8.4382,3300.15,5285,19,1803,0.13,1.44],"uses":{"params":["slug"]}}]}
