{"type":"data","nodes":[null,{"type":"data","data":[{"element":1},{"name":2,"appearance":3,"atomic_mass":4,"category":5,"density":6,"discoverer":7,"molar_heat":3,"number":8,"period":9,"phase":10,"spectral_img":3,"summary":11,"symbol":12,"shells":13,"electron_configuration":18,"electron_configuration_semantic":19,"electron_affinity":3,"electronegativity_pauling":3,"ionization_energies":20,"cpk-hex":3,"row":9,"column":21,"neutrons":22,"protons":8,"electrons":8,"radioactive":23,"natural":3,"metal":23,"nonmetal":24,"metalloid":24,"atomic_radius":3,"electronegativity":3,"first_ionization":3,"melting_point":3,"boiling_point":3,"number_of_isotopes":3,"year":25,"specific_heat":3,"n_shells":9,"n_valence":3,"covalent_radius":3},"Copernicum",null,285,"transition metal",23.7,"Gesellschaft für Schwerionenforschung",112,7,"Solid","Copernicum is a chemical element with symbol Cn and atomic number 112. It is an extremely radioactive synthetic element that can only be created in a laboratory. The most stable known isotope, copernicum-285, has a half-life of approximately 29 seconds, but it is possible that this copernicum isotope may have a nuclear isomer with a longer half-life, 8.9 min.","Cn",[14,15,16,17,17,16,14],2,8,18,32,"1s2 2s2 2p6 3s2 3p6 4s2 3d10 4p6 5s2 4d10 5p6 6s2 4f14 5d10 6p6 7s2 5f14 6d10","*[Rn] 5f14 6d10 7s2",[],12,173,true,false,1996],"uses":{"params":["slug"]}}]}
