{"type":"data","nodes":[null,{"type":"data","data":[{"element":1},{"name":2,"appearance":3,"atomic_mass":4,"category":5,"density":6,"discoverer":7,"molar_heat":3,"number":8,"period":9,"phase":10,"spectral_img":3,"summary":11,"symbol":12,"shells":13,"electron_configuration":19,"electron_configuration_semantic":20,"electron_affinity":3,"electronegativity_pauling":3,"ionization_energies":21,"cpk-hex":22,"row":9,"column":9,"neutrons":23,"protons":8,"electrons":8,"radioactive":24,"natural":3,"metal":24,"nonmetal":25,"metalloid":25,"atomic_radius":3,"electronegativity":3,"first_ionization":3,"melting_point":3,"boiling_point":3,"number_of_isotopes":3,"year":26,"specific_heat":3,"n_shells":9,"n_valence":3,"covalent_radius":3},"Bohrium",null,270,"transition metal",37.1,"Gesellschaft für Schwerionenforschung",107,7,"Solid","Bohrium is a chemical element with symbol Bh and atomic number 107. It is named after Danish physicist Niels Bohr. It is a synthetic element (an element that can be created in a laboratory but is not found in nature) and radioactive; the most stable known isotope, 270Bh, has a half-life of approximately 61 seconds.","Bh",[14,15,16,17,17,18,14],2,8,18,32,13,"1s2 2s2 2p6 3s2 3p6 4s2 3d10 4p6 5s2 4d10 5p6 6s2 4f14 5d10 6p6 7s2 5f14 6d5","*[Rn] 5f14 6d5 7s2",[],"e00038",157,true,false,1981],"uses":{"params":["slug"]}}]}
