{"type":"data","nodes":[null,{"type":"data","data":[{"element":1},{"name":2,"appearance":3,"atomic_mass":4,"category":5,"density":6,"discoverer":7,"molar_heat":3,"number":8,"period":9,"phase":10,"spectral_img":3,"summary":11,"symbol":12,"shells":13,"electron_configuration":19,"electron_configuration_semantic":20,"electron_affinity":3,"electronegativity_pauling":3,"ionization_energies":21,"cpk-hex":22,"row":9,"column":23,"neutrons":24,"protons":8,"electrons":8,"radioactive":25,"natural":3,"metal":25,"nonmetal":26,"metalloid":26,"atomic_radius":3,"electronegativity":3,"first_ionization":3,"melting_point":3,"boiling_point":3,"number_of_isotopes":3,"year":27,"specific_heat":3,"n_shells":9,"n_valence":3,"covalent_radius":3},"Seaborgium",null,269,"transition metal",35,"Lawrence Berkeley Laboratory",106,7,"Solid","Seaborgium is a synthetic element with symbol Sg and atomic number 106. Its most stable isotope 271Sg has a half-life of 1.9 minutes. A more recently discovered isotope 269Sg has a potentially slightly longer half-life (ca.","Sg",[14,15,16,17,17,18,14],2,8,18,32,12,"1s2 2s2 2p6 3s2 3p6 4s2 3d10 4p6 5s2 4d10 5p6 6s2 4f14 5d10 6p6 7s2 5f14 6d4","*[Rn] 5f14 6d4 7s2",[],"d90045",6,160,true,false,1974],"uses":{"params":["slug"]}}]}
