{"type":"data","nodes":[null,{"type":"data","data":[{"element":1},{"name":2,"appearance":3,"atomic_mass":4,"category":5,"density":6,"discoverer":7,"molar_heat":8,"number":9,"period":10,"phase":11,"spectral_img":12,"summary":13,"symbol":14,"shells":15,"electron_configuration":19,"electron_configuration_semantic":20,"electron_affinity":21,"electronegativity_pauling":22,"ionization_energies":23,"cpk-hex":41,"row":10,"column":9,"neutrons":42,"protons":9,"electrons":9,"radioactive":43,"natural":44,"metal":43,"nonmetal":44,"metalloid":43,"atomic_radius":45,"electronegativity":22,"first_ionization":46,"melting_point":47,"boiling_point":48,"number_of_isotopes":49,"year":50,"specific_heat":51,"n_shells":10,"n_valence":18,"covalent_radius":52},"Chlorine","pale yellow-green gas",35.45,"diatomic nonmetal",0.0032,"Carl Wilhelm Scheele",null,17,3,"Gas","https://wikipedia.org/wiki/File:Chlorine_spectrum_visible.png","Chlorine is a chemical element with symbol Cl and atomic number 17. It also has a relative atomic mass of 35.5. Chlorine is in the halogen group (17) and is the second lightest halogen following fluorine.","Cl",[16,17,18],2,8,7,"1s2 2s2 2p6 3s2 3p5","[Ne] 3s2 3p5",348.575,3.16,[24,25,26,27,28,29,30,31,32,33,34,35,36,37,38,39,40],1251.2,2298,3822,5158.6,6542,9362,11018,33604,38600,43961,51068,57119,63363,72341,78095,352994,380760,"1ff01f",18,false,true,0.97,12.9676,172.31,239.11,11,1774,0.479,1.02],"uses":{"params":["slug"]}}]}
