{"type":"data","nodes":[null,{"type":"data","data":[{"element":1},{"name":2,"appearance":3,"atomic_mass":4,"category":5,"density":6,"discoverer":7,"molar_heat":8,"number":9,"period":10,"phase":11,"spectral_img":12,"summary":13,"symbol":14,"shells":15,"electron_configuration":20,"electron_configuration_semantic":21,"electron_affinity":22,"electronegativity_pauling":23,"ionization_energies":24,"cpk-hex":31,"row":10,"column":32,"neutrons":33,"protons":9,"electrons":9,"radioactive":34,"natural":35,"metal":34,"nonmetal":34,"metalloid":35,"atomic_radius":36,"electronegativity":23,"first_ionization":37,"melting_point":38,"boiling_point":39,"number_of_isotopes":40,"year":41,"specific_heat":42,"n_shells":10,"n_valence":19,"covalent_radius":43},"Arsenic","metallic grey",74.9215956,"metalloid",5.727,"Bronze Age",24.64,33,4,"Solid",null,"Arsenic is a chemical element with symbol As and atomic number 33. Arsenic occurs in many minerals, usually in conjunction with sulfur and metals, and also as a pure elemental crystal. Arsenic is a metalloid.","As",[16,17,18,19],2,8,18,5,"1s2 2s2 2p6 3s2 3p6 4s2 3d10 4p3","[Ar] 3d10 4s2 4p3",77.65,2.18,[25,26,27,28,29,30],947,1798,2735,4837,6043,12310,"bd80e3",15,42,false,true,1.3,9.7886,1090.15,887,14,1250,0.329,1.19],"uses":{"params":["slug"]}}]}
