{"type":"data","nodes":[null,{"type":"data","data":[{"element":1},{"name":2,"appearance":3,"atomic_mass":4,"category":5,"density":6,"discoverer":7,"molar_heat":8,"number":9,"period":10,"phase":11,"spectral_img":12,"summary":13,"symbol":14,"shells":15,"electron_configuration":20,"electron_configuration_semantic":21,"electron_affinity":22,"electronegativity_pauling":23,"ionization_energies":24,"cpk-hex":29,"row":30,"column":31,"neutrons":32,"protons":9,"electrons":9,"radioactive":33,"natural":34,"metal":34,"nonmetal":33,"metalloid":33,"atomic_radius":35,"electronegativity":23,"first_ionization":36,"melting_point":37,"boiling_point":38,"number_of_isotopes":19,"year":39,"specific_heat":40,"n_shells":10,"n_valence":12,"covalent_radius":41},"Holmium","silvery white",164.930332,"lanthanide",8.79,"Marc Delafontaine",27.15,67,6,"Solid",null,"Holmium is a chemical element with symbol Ho and atomic number 67. Part of the lanthanide series, holmium is a rare earth element. Holmium was discovered by Swedish chemist Per Theodor Cleve.","Ho",[16,17,18,19,17,16],2,8,18,29,"1s2 2s2 2p6 3s2 3p6 4s2 3d10 4p6 5s2 4d10 5p6 6s2 4f11","[Xe] 4f11 6s2",32.61,1.23,[25,26,27,28],581,1140,2204,4100,"00ff9c",9,13,98,false,true,2.5,6.0215,1743.15,2993,1878,0.165,1.92],"uses":{"params":["slug"]}}]}
