{"type":"data","nodes":[null,{"type":"data","data":[{"element":1},{"name":2,"appearance":3,"atomic_mass":4,"category":5,"density":6,"discoverer":7,"molar_heat":8,"number":9,"period":10,"phase":11,"spectral_img":12,"summary":13,"symbol":14,"shells":15,"electron_configuration":20,"electron_configuration_semantic":21,"electron_affinity":22,"electronegativity_pauling":23,"ionization_energies":24,"cpk-hex":28,"row":10,"column":29,"neutrons":30,"protons":9,"electrons":9,"radioactive":31,"natural":32,"metal":32,"nonmetal":31,"metalloid":31,"atomic_radius":33,"electronegativity":23,"first_ionization":34,"melting_point":35,"boiling_point":36,"number_of_isotopes":37,"year":38,"specific_heat":39,"n_shells":10,"n_valence":12,"covalent_radius":40},"Silver","lustrous white metal",107.86822,"transition metal",10.49,"before 5000 BC",25.35,47,5,"Solid",null,"Silver is a chemical element with symbol Ag (Greek:άργυρος árguros, Latin:argentum, both from the Indo-European root *h₂erǵ- for \"grey\" or \"shining\") and atomic number 47. A soft, white, lustrous transition metal, it possesses the highest electrical conductivity, thermal conductivity and reflectivity of any metal. The metal occurs naturally in its pure, free form (native silver), as an alloy with gold and other metals, and in minerals such as argentite and chlorargyrite.","Ag",[16,17,18,18,19],2,8,18,1,"1s2 2s2 2p6 3s2 3p6 4s2 3d10 4p6 5s1 4d10","[Kr] 4d10 5s1",125.862,1.93,[25,26,27],731,2070,3361,"c0c0c0",11,61,false,true,1.8,7.5762,1234.15,2435,27,"~3000 BC",0.235,1.45],"uses":{"params":["slug"]}}]}
