{"type":"data","nodes":[null,{"type":"data","data":[{"element":1},{"name":2,"appearance":3,"atomic_mass":4,"category":5,"density":6,"discoverer":7,"molar_heat":8,"number":9,"period":10,"phase":11,"spectral_img":8,"summary":12,"symbol":13,"shells":14,"electron_configuration":21,"electron_configuration_semantic":22,"electron_affinity":23,"electronegativity_pauling":24,"ionization_energies":25,"cpk-hex":27,"row":28,"column":29,"neutrons":30,"protons":9,"electrons":9,"radioactive":31,"natural":31,"metal":31,"nonmetal":32,"metalloid":32,"atomic_radius":8,"electronegativity":24,"first_ionization":33,"melting_point":34,"boiling_point":35,"number_of_isotopes":36,"year":37,"specific_heat":8,"n_shells":10,"n_valence":8,"covalent_radius":15},"Protactinium","bright, silvery metallic luster",231.035882,"actinide",15.37,"William Crookes",null,91,7,"Solid","Protactinium is a chemical element with symbol Pa and atomic number 91. It is a dense, silvery-gray metal which readily reacts with oxygen, water vapor and inorganic acids. It forms various chemical compounds where protactinium is usually present in the oxidation state +5, but can also assume +4 and even +2 or +3 states.","Pa",[15,16,17,18,19,20,15],2,8,18,32,20,9,"1s2 2s2 2p6 3s2 3p6 4s2 3d10 4p6 5s2 4d10 5p6 6s2 4f14 5d10 6p6 7s2 5f2 6d1","[Rn] 5f2 6d1 7s2",53.03,1.5,[26],568,"00a1ff",10,5,140,true,false,5.89,1873.15,4300,14,1917],"uses":{"params":["slug"]}}]}
