{"type":"data","nodes":[null,{"type":"data","data":[{"element":1},{"name":2,"appearance":3,"atomic_mass":4,"category":5,"density":6,"discoverer":7,"molar_heat":8,"number":9,"period":10,"phase":11,"spectral_img":12,"summary":13,"symbol":14,"shells":15,"electron_configuration":20,"electron_configuration_semantic":21,"electron_affinity":22,"electronegativity_pauling":23,"ionization_energies":24,"cpk-hex":29,"row":10,"column":30,"neutrons":31,"protons":9,"electrons":9,"radioactive":32,"natural":33,"metal":33,"nonmetal":32,"metalloid":32,"atomic_radius":16,"electronegativity":23,"first_ionization":34,"melting_point":35,"boiling_point":36,"number_of_isotopes":37,"year":38,"specific_heat":39,"n_shells":10,"n_valence":19,"covalent_radius":40},"Indium","silvery lustrous gray",114.8181,"post-transition metal",7.31,"Ferdinand Reich",26.74,49,5,"Solid",null,"Indium is a chemical element with symbol In and atomic number 49. It is a post-transition metallic element that is rare in Earth's crust. The metal is very soft, malleable and easily fusible, with a melting point higher than sodium, but lower than lithium or tin.","In",[16,17,18,18,19],2,8,18,3,"1s2 2s2 2p6 3s2 3p6 4s2 3d10 4p6 5s2 4d10 5p1","[Kr] 4d10 5s2 5p1",37.043,1.78,[25,26,27,28],558.3,1820.7,2704,5210,"a67573",13,66,false,true,5.7864,429.91,2345,34,1863,0.233,1.42],"uses":{"params":["slug"]}}]}
