{"type":"data","nodes":[null,{"type":"data","data":[{"element":1},{"name":2,"appearance":3,"atomic_mass":4,"category":5,"density":6,"discoverer":7,"molar_heat":8,"number":9,"period":10,"phase":11,"spectral_img":12,"summary":13,"symbol":14,"shells":15,"electron_configuration":19,"electron_configuration_semantic":20,"electron_affinity":21,"electronegativity_pauling":22,"ionization_energies":23,"cpk-hex":51,"row":10,"column":52,"neutrons":53,"protons":9,"electrons":9,"radioactive":54,"natural":55,"metal":55,"nonmetal":54,"metalloid":54,"atomic_radius":56,"electronegativity":22,"first_ionization":57,"melting_point":58,"boiling_point":59,"number_of_isotopes":60,"year":61,"specific_heat":62,"n_shells":10,"n_valence":12,"covalent_radius":63},"Cobalt","hard lustrous gray metal",58.9331944,"transition metal",8.9,"Georg Brandt",24.81,27,4,"Solid",null,"Cobalt is a chemical element with symbol Co and atomic number 27. Like nickel, cobalt in the Earth's crust is found only in chemically combined form, save for small deposits found in alloys of natural meteoric iron. The free element, produced by reductive smelting, is a hard, lustrous, silver-gray metal.","Co",[16,17,18,16],2,8,15,"1s2 2s2 2p6 3s2 3p6 4s2 3d7","[Ar] 3d7 4s2",63.898,1.88,[24,25,26,27,28,29,30,31,32,33,34,35,36,37,38,39,40,41,42,43,44,45,46,47,48,49,50],760.4,1648,3232,4950,7670,9840,12440,15230,17959,26570,29400,32400,36600,39700,42800,49396,52737,134810,145170,154700,167400,178100,189300,204500,214100,920870,966023,"f090a0",9,32,false,true,1.7,7.881,1768.15,3200,14,1735,0.421,1.26],"uses":{"params":["slug"]}}]}
