{"type":"data","nodes":[null,{"type":"data","data":[{"element":1},{"name":2,"appearance":3,"atomic_mass":4,"category":5,"density":6,"discoverer":7,"molar_heat":8,"number":9,"period":10,"phase":11,"spectral_img":3,"summary":12,"symbol":13,"shells":14,"electron_configuration":19,"electron_configuration_semantic":20,"electron_affinity":21,"electronegativity_pauling":22,"ionization_energies":23,"cpk-hex":28,"row":29,"column":29,"neutrons":30,"protons":9,"electrons":9,"radioactive":31,"natural":32,"metal":32,"nonmetal":31,"metalloid":31,"atomic_radius":33,"electronegativity":22,"first_ionization":34,"melting_point":35,"boiling_point":36,"number_of_isotopes":37,"year":38,"specific_heat":39,"n_shells":10,"n_valence":3,"covalent_radius":40},"Europium",null,151.9641,"lanthanide",5.264,"Eugène-Anatole Demarçay",27.66,63,6,"Solid","Europium is a chemical element with symbol Eu and atomic number 63. It was isolated in 1901 and is named after the continent of Europe. It is a moderately hard, silvery metal which readily oxidizes in air and water.","Eu",[15,16,17,18,16,15],2,8,18,25,"1s2 2s2 2p6 3s2 3p6 4s2 3d10 4p6 5s2 4d10 5p6 6s2 4f7","[Xe] 4f7 6s2",11.2,1.2,[24,25,26,27],547.1,1085,2404,4120,"61ffc7",9,89,false,true,2.6,5.6704,1095.15,1802,21,1901,0.182,1.98],"uses":{"params":["slug"]}}]}
