{"type":"data","nodes":[null,{"type":"data","data":[{"element":1},{"name":2,"appearance":3,"atomic_mass":4,"category":5,"density":6,"discoverer":7,"molar_heat":3,"number":8,"period":9,"phase":10,"spectral_img":3,"summary":11,"symbol":12,"shells":13,"electron_configuration":19,"electron_configuration_semantic":20,"electron_affinity":3,"electronegativity_pauling":3,"ionization_energies":21,"cpk-hex":23,"row":9,"column":24,"neutrons":25,"protons":8,"electrons":8,"radioactive":26,"natural":3,"metal":26,"nonmetal":27,"metalloid":27,"atomic_radius":3,"electronegativity":3,"first_ionization":3,"melting_point":3,"boiling_point":3,"number_of_isotopes":3,"year":28,"specific_heat":3,"n_shells":9,"n_valence":3,"covalent_radius":3},"Rutherfordium",null,267,"transition metal",23.2,"Joint Institute for Nuclear Research",104,7,"Solid","Rutherfordium is a chemical element with symbol Rf and atomic number 104, named in honor of physicist Ernest Rutherford. It is a synthetic element (an element that can be created in a laboratory but is not found in nature) and radioactive; the most stable known isotope, 267Rf, has a half-life of approximately 1.3 hours. In the periodic table of the elements, it is a d - block element and the second of the fourth - row transition elements.","Rf",[14,15,16,17,17,18,14],2,8,18,32,10,"1s2 2s2 2p6 3s2 3p6 4s2 3d10 4p6 5s2 4d10 5p6 6s2 4f14 5d10 6p6 7s2 5f14 6d2","[Rn] 5f14 6d2 7s2",[22],580,"cc0059",4,157,true,false,1969],"uses":{"params":["slug"]}}]}
