{"type":"data","nodes":[null,{"type":"data","data":[{"element":1},{"name":2,"appearance":3,"atomic_mass":4,"category":5,"density":6,"discoverer":7,"molar_heat":8,"number":9,"period":10,"phase":11,"spectral_img":12,"summary":13,"symbol":14,"shells":15,"electron_configuration":20,"electron_configuration_semantic":21,"electron_affinity":22,"electronegativity_pauling":23,"ionization_energies":24,"cpk-hex":29,"row":30,"column":31,"neutrons":32,"protons":9,"electrons":9,"radioactive":33,"natural":34,"metal":34,"nonmetal":33,"metalloid":33,"atomic_radius":35,"electronegativity":23,"first_ionization":36,"melting_point":37,"boiling_point":38,"number_of_isotopes":18,"year":39,"specific_heat":40,"n_shells":10,"n_valence":12,"covalent_radius":41},"Thulium","silvery gray",168.934222,"lanthanide",9.32,"Per Teodor Cleve",27.03,69,6,"Solid",null,"Thulium is a chemical element with symbol Tm and atomic number 69. It is the thirteenth and antepenultimate (third-last) element in the lanthanide series. Like the other lanthanides, the most common oxidation state is +3, seen in its oxide, halides and other compounds.","Tm",[16,17,18,19,17,16],2,8,18,31,"1s2 2s2 2p6 3s2 3p6 4s2 3d10 4p6 5s2 4d10 5p6 6s2 4f13","[Xe] 4f13 6s2",99,1.25,[25,26,27,28],596.7,1160,2285,4120,"00d452",9,15,100,false,true,2.4,6.1843,1818.15,2223,1879,0.16,1.9],"uses":{"params":["slug"]}}]}
