{"type":"data","nodes":[null,{"type":"data","data":[{"element":1},{"name":2,"appearance":3,"atomic_mass":4,"category":5,"density":6,"discoverer":7,"molar_heat":8,"number":9,"period":10,"phase":11,"spectral_img":12,"summary":13,"symbol":14,"shells":15,"electron_configuration":18,"electron_configuration_semantic":19,"electron_affinity":20,"electronegativity_pauling":21,"ionization_energies":22,"cpk-hex":36,"row":10,"column":9,"neutrons":37,"protons":9,"electrons":9,"radioactive":38,"natural":39,"metal":39,"nonmetal":38,"metalloid":38,"atomic_radius":40,"electronegativity":21,"first_ionization":41,"melting_point":42,"boiling_point":43,"number_of_isotopes":17,"year":44,"specific_heat":45,"n_shells":10,"n_valence":10,"covalent_radius":46},"Aluminium","silvery gray metallic",26.98153857,"post-transition metal",2.7,"Hans Christian Ørsted",24.2,13,3,"Solid",null,"Aluminium (or aluminum; see different endings) is a chemical element in the boron group with symbol Al and atomic number 13. It is a silvery-white, soft, nonmagnetic, ductile metal. Aluminium is the third most abundant element (after oxygen and silicon), and the most abundant metal, in the Earth's crust.","Al",[16,17,10],2,8,"1s2 2s2 2p6 3s2 3p1","[Ne] 3s2 3p1",41.762,1.61,[23,24,25,26,27,28,29,30,31,32,33,34,35],577.5,1816.7,2744.8,11577,14842,18379,23326,27465,31853,38473,42647,201266,222316,"bfa6a6",14,false,true,1.8,5.9858,933.4,2792,1827,0.897,1.21],"uses":{"params":["slug"]}}]}
