{"type":"data","nodes":[null,{"type":"data","data":[{"element":1},{"name":2,"appearance":3,"atomic_mass":4,"category":5,"density":6,"discoverer":7,"molar_heat":8,"number":9,"period":10,"phase":11,"spectral_img":12,"summary":13,"symbol":14,"shells":15,"electron_configuration":19,"electron_configuration_semantic":20,"electron_affinity":21,"electronegativity_pauling":22,"ionization_energies":23,"cpk-hex":38,"row":10,"column":9,"neutrons":9,"protons":9,"electrons":9,"radioactive":39,"natural":40,"metal":39,"nonmetal":39,"metalloid":40,"atomic_radius":41,"electronegativity":22,"first_ionization":42,"melting_point":43,"boiling_point":44,"number_of_isotopes":17,"year":45,"specific_heat":46,"n_shells":10,"n_valence":18,"covalent_radius":47},"Silicon","crystalline, reflective with bluish-tinged faces",28.085,"metalloid",2.329,"Jöns Jacob Berzelius",19.789,14,3,"Solid","https://wikipedia.org/wiki/File:Silicon_Spectra.jpg","Silicon is a chemical element with symbol Si and atomic number 14. It is a tetravalent metalloid, more reactive than germanium, the metalloid directly below it in the table. Controversy about silicon's character dates to its discovery.","Si",[16,17,18],2,8,4,"1s2 2s2 2p6 3s2 3p2","[Ne] 3s2 3p2",134.0684,1.9,[24,25,26,27,28,29,30,31,32,33,34,35,36,37],786.5,1577.1,3231.6,4355.5,16091,19805,23780,29287,33878,38726,45962,50502,235196,257923,"f0c8a0",false,true,1.5,8.1517,1683.15,3538,1824,0.705,1.11],"uses":{"params":["slug"]}}]}
