{"type":"data","nodes":[null,{"type":"data","data":[{"element":1},{"name":2,"appearance":3,"atomic_mass":4,"category":5,"density":6,"discoverer":7,"molar_heat":3,"number":8,"period":9,"phase":10,"spectral_img":3,"summary":11,"symbol":12,"shells":13,"electron_configuration":19,"electron_configuration_semantic":20,"electron_affinity":21,"electronegativity_pauling":22,"ionization_energies":23,"cpk-hex":25,"row":9,"column":18,"neutrons":26,"protons":8,"electrons":8,"radioactive":27,"natural":27,"metal":27,"nonmetal":28,"metalloid":28,"atomic_radius":3,"electronegativity":29,"first_ionization":30,"melting_point":31,"boiling_point":32,"number_of_isotopes":33,"year":34,"specific_heat":3,"n_shells":9,"n_valence":18,"covalent_radius":35},"Francium",null,223,"alkali metal",1.87,"Marguerite Perey",87,7,"Solid","Francium is a chemical element with symbol Fr and atomic number 87. It used to be known as eka-caesium and actinium K. It is the second-least electronegative element, behind only caesium. Francium is a highly radioactive metal that decays into astatine, radium, and radon.","Fr",[14,15,16,17,16,15,18],2,8,18,32,1,"1s2 2s2 2p6 3s2 3p6 4s2 3d10 4p6 5s2 4d10 5p6 6s2 4f14 5d10 6p6 7s1","[Rn] 7s1",46.89,0.79,[24],380,"420066",136,true,false,0.7,4.0727,300.15,950,21,1939,2.6],"uses":{"params":["slug"]}}]}
