{"type":"data","nodes":[null,{"type":"data","data":[{"element":1},{"name":2,"appearance":3,"atomic_mass":4,"category":5,"density":6,"discoverer":7,"molar_heat":8,"number":9,"period":10,"phase":11,"spectral_img":12,"summary":13,"symbol":14,"shells":15,"electron_configuration":21,"electron_configuration_semantic":22,"electron_affinity":23,"electronegativity_pauling":24,"ionization_energies":25,"cpk-hex":32,"row":20,"column":33,"neutrons":34,"protons":9,"electrons":9,"radioactive":35,"natural":36,"metal":36,"nonmetal":35,"metalloid":35,"atomic_radius":37,"electronegativity":24,"first_ionization":38,"melting_point":39,"boiling_point":40,"number_of_isotopes":19,"year":41,"specific_heat":42,"n_shells":10,"n_valence":12,"covalent_radius":43},"Cerium","silvery white",140.1161,"lanthanide",6.77,"Martin Klaproth",26.94,58,6,"Solid",null,"Cerium is a chemical element with symbol Ce and atomic number 58. It is a soft, silvery, ductile metal which easily oxidizes in air. Cerium was named after the dwarf planet Ceres (itself named after the Roman goddess of agriculture).","Ce",[16,17,18,19,20,16],2,8,18,19,9,"1s2 2s2 2p6 3s2 3p6 4s2 3d10 4p6 5s2 4d10 5p6 6s2 5d1 4f1","[Xe] 4f1 5d1 6s2",55,1.12,[26,27,28,29,30,31],534.4,1050,1949,3547,6325,7490,"ffffc7",4,82,false,true,2.7,5.5387,1071.15,3716,1803,0.192,2.04],"uses":{"params":["slug"]}}]}
