{"type":"data","nodes":[null,{"type":"data","data":[{"element":1},{"name":2,"appearance":3,"atomic_mass":4,"category":5,"density":6,"discoverer":7,"molar_heat":8,"number":9,"period":10,"phase":11,"spectral_img":12,"summary":13,"symbol":14,"shells":15,"electron_configuration":21,"electron_configuration_semantic":22,"electron_affinity":23,"electronegativity_pauling":24,"ionization_energies":25,"cpk-hex":33,"row":10,"column":10,"neutrons":34,"protons":9,"electrons":9,"radioactive":35,"natural":36,"metal":36,"nonmetal":35,"metalloid":35,"atomic_radius":37,"electronegativity":24,"first_ionization":38,"melting_point":39,"boiling_point":40,"number_of_isotopes":41,"year":42,"specific_heat":43,"n_shells":10,"n_valence":12,"covalent_radius":44},"Niobium","gray metallic, bluish when oxidized",92.906372,"transition metal",8.57,"Charles Hatchett",24.6,41,5,"Solid",null,"Niobium, formerly columbium, is a chemical element with symbol Nb (formerly Cb) and atomic number 41. It is a soft, grey, ductile transition metal, which is often found in the pyrochlore mineral, the main commercial source for niobium, and columbite. The name comes from Greek mythology:Niobe, daughter of Tantalus since it is so similar to tantalum.","Nb",[16,17,18,19,20],2,8,18,12,1,"1s2 2s2 2p6 3s2 3p6 4s2 3d10 4p6 5s1 4d4","[Kr] 4d4 5s1",88.516,1.6,[26,27,28,29,30,31,32],652.1,1380,2416,3700,4877,9847,12100,"73c2c9",52,false,true,2.1,6.7589,2741.15,5017,24,1801,0.265,1.64],"uses":{"params":["slug"]}}]}
