{"type":"data","nodes":[null,{"type":"data","data":[{"element":1},{"name":2,"appearance":3,"atomic_mass":4,"category":5,"density":6,"discoverer":7,"molar_heat":8,"number":9,"period":10,"phase":11,"spectral_img":12,"summary":13,"symbol":14,"shells":15,"electron_configuration":20,"electron_configuration_semantic":21,"electron_affinity":22,"electronegativity_pauling":23,"ionization_energies":24,"cpk-hex":29,"row":30,"column":17,"neutrons":31,"protons":9,"electrons":9,"radioactive":32,"natural":33,"metal":33,"nonmetal":32,"metalloid":32,"atomic_radius":34,"electronegativity":23,"first_ionization":35,"melting_point":36,"boiling_point":37,"number_of_isotopes":38,"year":39,"specific_heat":40,"n_shells":10,"n_valence":12,"covalent_radius":41},"Samarium","silvery white",150.362,"lanthanide",7.52,"Lecoq de Boisbaudran",29.54,62,6,"Solid",null,"Samarium is a chemical element with symbol Sm and atomic number 62. It is a moderately hard silvery metal that readily oxidizes in air. Being a typical member of the lanthanide series, samarium usually assumes the oxidation state +3.","Sm",[16,17,18,19,17,16],2,8,18,24,"1s2 2s2 2p6 3s2 3p6 4s2 3d10 4p6 5s2 4d10 5p6 6s2 4f6","[Xe] 4f6 6s2",15.63,1.17,[25,26,27,28],544.5,1070,2260,3990,"8fffc7",9,88,false,true,2.6,5.6437,1345.15,2067,17,1879,0.197,1.98],"uses":{"params":["slug"]}}]}
