{"type":"data","nodes":[null,{"type":"data","data":[{"element":1},{"name":2,"appearance":3,"atomic_mass":4,"category":5,"density":6,"discoverer":7,"molar_heat":8,"number":9,"period":10,"phase":11,"spectral_img":3,"summary":12,"symbol":13,"shells":14,"electron_configuration":19,"electron_configuration_semantic":20,"electron_affinity":21,"electronegativity_pauling":22,"ionization_energies":23,"cpk-hex":28,"row":29,"column":30,"neutrons":31,"protons":9,"electrons":9,"radioactive":32,"natural":33,"metal":33,"nonmetal":32,"metalloid":32,"atomic_radius":34,"electronegativity":22,"first_ionization":35,"melting_point":36,"boiling_point":37,"number_of_isotopes":30,"year":38,"specific_heat":39,"n_shells":10,"n_valence":3,"covalent_radius":40},"Ytterbium",null,173.0451,"lanthanide",6.9,"Jean de Marignac",26.74,70,6,"Solid","Ytterbium is a chemical element with symbol Yb and atomic number 70. It is the fourteenth and penultimate element in the lanthanide series, which is the basis of the relative stability of its +2 oxidation state. However, like the other lanthanides, its most common oxidation state is +3, seen in its oxide, halides and other compounds.","Yb",[15,16,17,18,16,15],2,8,18,32,"1s2 2s2 2p6 3s2 3p6 4s2 3d10 4p6 5s2 4d10 5p6 6s2 4f14","[Xe] 4f14 6s2",-1.93,1.1,[24,25,26,27],603.4,1174.8,2417,4203,"00bf38",9,16,103,false,true,2.4,6.2542,1097.15,1469,1878,0.155,1.87],"uses":{"params":["slug"]}}]}
