{"type":"data","nodes":[null,{"type":"data","data":[{"element":1},{"name":2,"appearance":3,"atomic_mass":4,"category":5,"density":6,"discoverer":7,"molar_heat":8,"number":9,"period":10,"phase":11,"spectral_img":12,"summary":13,"symbol":14,"shells":15,"electron_configuration":19,"electron_configuration_semantic":20,"electron_affinity":21,"electronegativity_pauling":22,"ionization_energies":23,"cpk-hex":35,"row":10,"column":18,"neutrons":36,"protons":9,"electrons":9,"radioactive":37,"natural":38,"metal":38,"nonmetal":37,"metalloid":37,"atomic_radius":39,"electronegativity":22,"first_ionization":40,"melting_point":41,"boiling_point":42,"number_of_isotopes":43,"year":44,"specific_heat":45,"n_shells":10,"n_valence":18,"covalent_radius":46},"Sodium","silvery white metallic",22.989769282,"alkali metal",0.968,"Humphry Davy",28.23,11,3,"Solid","https://wikipedia.org/wiki/File:Sodium_Spectra.jpg","Sodium /ˈsoʊdiəm/ is a chemical element with symbol Na (from Ancient Greek Νάτριο) and atomic number 11. It is a soft, silver-white, highly reactive metal. In the Periodic table it is in column 1 (alkali metals), and shares with the other six elements in that column that it has a single electron in its outer shell, which it readily donates, creating a positively charged atom - a cation.","Na",[16,17,18],2,8,1,"1s2 2s2 2p6 3s1","[Ne] 3s1",52.867,0.93,[24,25,26,27,28,29,30,31,32,33,34],495.8,4562,6910.3,9543,13354,16613,20117,25496,28932,141362,159076,"ab5cf2",12,false,true,2.2,5.1391,371.15,1156,7,1807,1.228,1.66],"uses":{"params":["slug"]}}]}
