{"type":"data","nodes":[null,{"type":"data","data":[{"element":1},{"name":2,"appearance":3,"atomic_mass":4,"category":5,"density":6,"discoverer":7,"molar_heat":8,"number":9,"period":10,"phase":11,"spectral_img":12,"summary":13,"symbol":14,"shells":15,"electron_configuration":20,"electron_configuration_semantic":21,"electron_affinity":22,"electronegativity_pauling":16,"ionization_energies":23,"cpk-hex":25,"row":10,"column":26,"neutrons":27,"protons":9,"electrons":9,"radioactive":28,"natural":28,"metal":29,"nonmetal":29,"metalloid":28,"atomic_radius":30,"electronegativity":16,"first_ionization":31,"melting_point":32,"boiling_point":33,"number_of_isotopes":34,"year":35,"specific_heat":12,"n_shells":10,"n_valence":10,"covalent_radius":36},"Polonium","silvery",209,"post-transition metal",9.196,"Pierre Curie",26.4,84,6,"Solid",null,"Polonium is a chemical element with symbol Po and atomic number 84, discovered in 1898 by Marie Curie and Pierre Curie. A rare and highly radioactive element with no stable isotopes, polonium is chemically similar to bismuth and tellurium, and it occurs in uranium ores. Applications of polonium are few.","Po",[16,17,18,19,18,10],2,8,18,32,"1s2 2s2 2p6 3s2 3p6 4s2 3d10 4p6 5s2 4d10 5p6 6s2 4f14 5d10 6p4","[Xe] 4f14 5d10 6s2 6p4",136,[24],812.1,"ab5c00",16,126,true,false,1.5,8.417,527.15,1235,34,1898,1.4],"uses":{"params":["slug"]}}]}
