{"type":"data","nodes":[null,{"type":"data","data":[{"element":1},{"name":2,"appearance":3,"atomic_mass":4,"category":5,"density":6,"discoverer":7,"molar_heat":3,"number":8,"period":9,"phase":10,"spectral_img":3,"summary":11,"symbol":12,"shells":13,"electron_configuration":19,"electron_configuration_semantic":20,"electron_affinity":21,"electronegativity_pauling":22,"ionization_energies":23,"cpk-hex":25,"row":26,"column":27,"neutrons":28,"protons":8,"electrons":8,"radioactive":29,"natural":3,"metal":29,"nonmetal":30,"metalloid":30,"atomic_radius":3,"electronegativity":22,"first_ionization":31,"melting_point":3,"boiling_point":3,"number_of_isotopes":32,"year":33,"specific_heat":3,"n_shells":9,"n_valence":3,"covalent_radius":3},"Fermium",null,257,"actinide",9.7,"Lawrence Berkeley Laboratory",100,7,"Solid","Fermium is a synthetic element with symbol Fm and atomic number 100. It is a member of the actinide series. It is the heaviest element that can be formed by neutron bombardment of lighter elements, and hence the last element that can be prepared in macroscopic quantities, although pure fermium metal has not yet been prepared.","Fm",[14,15,16,17,18,15,14],2,8,18,32,30,"1s2 2s2 2p6 3s2 3p6 4s2 3d10 4p6 5s2 4d10 5p6 6s2 4f14 5d10 6p6 7s2 5f12","[Rn] 5f12 7s2",33.96,1.3,[24],627,"b31fba",10,14,157,true,false,6.5,103,1953],"uses":{"params":["slug"]}}]}
