{"type":"data","nodes":[null,{"type":"data","data":[{"element":1},{"name":2,"appearance":3,"atomic_mass":4,"category":5,"density":6,"discoverer":7,"molar_heat":8,"number":9,"period":10,"phase":11,"spectral_img":12,"summary":13,"symbol":14,"shells":15,"electron_configuration":17,"electron_configuration_semantic":18,"electron_affinity":19,"electronegativity_pauling":20,"ionization_energies":21,"cpk-hex":28,"row":10,"column":29,"neutrons":9,"protons":9,"electrons":9,"radioactive":30,"natural":31,"metal":30,"nonmetal":31,"metalloid":30,"atomic_radius":32,"electronegativity":20,"first_ionization":33,"melting_point":34,"boiling_point":35,"number_of_isotopes":36,"year":37,"specific_heat":38,"n_shells":10,"n_valence":16,"covalent_radius":39},"Carbon",null,12.011,"polyatomic nonmetal",1.821,"Ancient Egypt",8.517,6,2,"Solid","https://wikipedia.org/wiki/File:Carbon_Spectra.jpg","Carbon (from Latin:carbo \"coal\") is a chemical element with symbol C and atomic number 6. On the periodic table, it is the first (row 2) of six elements in column (group) 14, which have in common the composition of their outer electron shell. It is nonmetallic and tetravalent—making four electrons available to form covalent chemical bonds.","C",[10,16],4,"1s2 2s2 2p2","[He] 2s2 2p2",121.7763,2.55,[22,23,24,25,26,27],1086.5,2352.6,4620.5,6222.7,37831,47277,"909090",14,false,true,0.91,11.2603,3948.15,4300,7,"unknown",0.709,0.76],"uses":{"params":["slug"]}}]}
