{"type":"data","nodes":[null,{"type":"data","data":[{"element":1},{"name":2,"appearance":3,"atomic_mass":4,"category":5,"density":6,"discoverer":7,"molar_heat":8,"number":9,"period":10,"phase":11,"spectral_img":12,"summary":13,"symbol":14,"shells":15,"electron_configuration":19,"electron_configuration_semantic":20,"electron_affinity":21,"electronegativity_pauling":22,"ionization_energies":23,"cpk-hex":54,"row":10,"column":18,"neutrons":55,"protons":9,"electrons":9,"radioactive":56,"natural":57,"metal":56,"nonmetal":57,"metalloid":56,"atomic_radius":58,"electronegativity":8,"first_ionization":59,"melting_point":60,"boiling_point":61,"number_of_isotopes":62,"year":63,"specific_heat":64,"n_shells":10,"n_valence":17,"covalent_radius":65},"Krypton","colorless gas, exhibiting a whitish glow in a high electric field",83.7982,"noble gas",0.003749,"William Ramsay",null,36,4,"Gas","https://wikipedia.org/wiki/File:Krypton_Spectrum.jpg","Krypton (from Greek:κρυπτός kryptos \"the hidden one\") is a chemical element with symbol Kr and atomic number 36. It is a member of group 18 (noble gases) elements. A colorless, odorless, tasteless noble gas, krypton occurs in trace amounts in the atmosphere, is isolated by fractionally distilling liquefied air, and is often used with other rare gases in fluorescent lamps.","Kr",[16,17,18,17],2,8,18,"1s2 2s2 2p6 3s2 3p6 4s2 3d10 4p6","[Ar] 3d10 4s2 4p6",-96,3,[24,25,26,27,28,29,30,31,32,33,34,35,36,37,38,39,40,41,42,43,44,45,46,47,48,49,50,51,52,53],1350.8,2350.4,3565,5070,6240,7570,10710,12138,22274,25880,29700,33800,37700,43100,47500,52200,57100,61800,75800,80400,85300,90400,96300,101400,111100,116290,282500,296200,311400,326200,"5cb8d1",48,false,true,1,13.9996,115.93,119.93,23,1898,0.248,1.16],"uses":{"params":["slug"]}}]}
