{"type":"data","nodes":[null,{"type":"data","data":[{"element":1},{"name":2,"appearance":3,"atomic_mass":4,"category":5,"density":6,"discoverer":7,"molar_heat":8,"number":9,"period":10,"phase":11,"spectral_img":12,"summary":13,"symbol":14,"shells":15,"electron_configuration":21,"electron_configuration_semantic":22,"electron_affinity":23,"electronegativity_pauling":24,"ionization_energies":25,"cpk-hex":28,"row":10,"column":29,"neutrons":30,"protons":9,"electrons":9,"radioactive":31,"natural":32,"metal":32,"nonmetal":31,"metalloid":31,"atomic_radius":33,"electronegativity":24,"first_ionization":34,"melting_point":35,"boiling_point":36,"number_of_isotopes":37,"year":38,"specific_heat":39,"n_shells":10,"n_valence":40,"covalent_radius":41},"Tantalum","gray blue",180.947882,"transition metal",16.69,"Anders Gustaf Ekeberg",25.36,73,6,"Solid","https://wikipedia.org/wiki/File:Tantalum_spectrum_visible.png","Tantalum is a chemical element with symbol Ta and atomic number 73. Previously known as tantalium, its name comes from Tantalus, an antihero from Greek mythology. Tantalum is a rare, hard, blue-gray, lustrous transition metal that is highly corrosion-resistant.","Ta",[16,17,18,19,20,16],2,8,18,32,11,"1s2 2s2 2p6 3s2 3p6 4s2 3d10 4p6 5s2 4d10 5p6 6s2 4f14 5d3","[Xe] 4f14 5d3 6s2",31,1.5,[26,27],761,1500,"4da6ff",5,108,false,true,2.1,7.5496,3269.15,5731,19,1801,0.14,null,1.7],"uses":{"params":["slug"]}}]}
