{"type":"data","nodes":[null,{"type":"data","data":[{"element":1},{"name":2,"appearance":3,"atomic_mass":4,"category":5,"density":6,"discoverer":7,"molar_heat":8,"number":9,"period":10,"phase":11,"spectral_img":12,"summary":13,"symbol":14,"shells":15,"electron_configuration":16,"electron_configuration_semantic":17,"electron_affinity":18,"electronegativity_pauling":19,"ionization_energies":20,"cpk-hex":25,"row":10,"column":10,"neutrons":26,"protons":9,"electrons":9,"radioactive":27,"natural":28,"metal":28,"nonmetal":27,"metalloid":27,"atomic_radius":29,"electronegativity":19,"first_ionization":30,"melting_point":31,"boiling_point":32,"number_of_isotopes":33,"year":34,"specific_heat":35,"n_shells":10,"n_valence":10,"covalent_radius":36},"Beryllium","white-gray metallic",9.01218315,"alkaline earth metal",1.85,"Louis Vauquelin",16.443,4,2,"Solid",null,"Beryllium is a chemical element with symbol Be and atomic number 4. It is created through stellar nucleosynthesis and is a relatively rare element in the universe. It is a divalent element which occurs naturally only in combination with other elements in minerals.","Be",[10,10],"1s2 2s2","[He] 2s2",-48,1.57,[21,22,23,24],899.5,1757.1,14848.7,21006.6,"c2ff00",5,false,true,1.4,9.3227,1560.15,2742,6,1798,1.825,0.96],"uses":{"params":["slug"]}}]}
