{"type":"data","nodes":[null,{"type":"data","data":[{"element":1},{"name":2,"appearance":3,"atomic_mass":4,"category":5,"density":6,"discoverer":7,"molar_heat":8,"number":9,"period":10,"phase":11,"spectral_img":12,"summary":13,"symbol":14,"shells":15,"electron_configuration":19,"electron_configuration_semantic":20,"electron_affinity":21,"electronegativity_pauling":22,"ionization_energies":23,"cpk-hex":52,"row":10,"column":53,"neutrons":54,"protons":9,"electrons":9,"radioactive":55,"natural":56,"metal":56,"nonmetal":55,"metalloid":55,"atomic_radius":57,"electronegativity":22,"first_ionization":58,"melting_point":59,"boiling_point":60,"number_of_isotopes":61,"year":62,"specific_heat":63,"n_shells":10,"n_valence":12,"covalent_radius":64},"Nickel","lustrous, metallic, and silver with a gold tinge",58.69344,"transition metal",8.908,"Axel Fredrik Cronstedt",26.07,28,4,"Solid",null,"Nickel is a chemical element with symbol Ni and atomic number 28. It is a silvery-white lustrous metal with a slight golden tinge. Nickel belongs to the transition metals and is hard and ductile.","Ni",[16,17,18,16],2,8,16,"1s2 2s2 2p6 3s2 3p6 4s2 3d8","[Ar] 3d8 4s2",111.65,1.91,[24,25,26,27,28,29,30,31,32,33,34,35,36,37,38,39,40,41,42,43,44,45,46,47,48,49,50,51],737.1,1753,3395,5300,7339,10400,12800,15600,18600,21670,30970,34000,37100,41500,44800,48100,55101,58570,148700,159000,169400,182700,194000,205600,221400,231490,992718,1039668,"50d050",10,31,false,true,1.6,7.6398,1726.15,3186,11,1751,0.444,1.24],"uses":{"params":["slug"]}}]}
