{"type":"data","nodes":[null,{"type":"data","data":[{"element":1},{"name":2,"appearance":3,"atomic_mass":4,"category":5,"density":6,"discoverer":7,"molar_heat":8,"number":9,"period":10,"phase":11,"spectral_img":12,"summary":13,"symbol":14,"shells":15,"electron_configuration":20,"electron_configuration_semantic":21,"electron_affinity":22,"electronegativity_pauling":23,"ionization_energies":24,"cpk-hex":29,"row":30,"column":31,"neutrons":32,"protons":9,"electrons":9,"radioactive":33,"natural":34,"metal":34,"nonmetal":33,"metalloid":33,"atomic_radius":35,"electronegativity":23,"first_ionization":36,"melting_point":37,"boiling_point":38,"number_of_isotopes":39,"year":40,"specific_heat":41,"n_shells":10,"n_valence":12,"covalent_radius":42},"Dysprosium","silvery white",162.5001,"lanthanide",8.54,"Lecoq de Boisbaudran",27.7,66,6,"Solid",null,"Dysprosium is a chemical element with the symbol Dy and atomic number 66. It is a rare earth element with a metallic silver luster. Dysprosium is never found in nature as a free element, though it is found in various minerals, such as xenotime.","Dy",[16,17,18,19,17,16],2,8,18,28,"1s2 2s2 2p6 3s2 3p6 4s2 3d10 4p6 5s2 4d10 5p6 6s2 4f10","[Xe] 4f10 6s2",33.96,1.22,[25,26,27,28],573,1130,2200,3990,"1fffc7",9,12,97,false,true,2.5,5.9389,1680.15,2840,21,1886,0.17,1.92],"uses":{"params":["slug"]}}]}
