{"type":"data","nodes":[null,{"type":"data","data":[{"element":1},{"name":2,"appearance":3,"atomic_mass":4,"category":5,"density":6,"discoverer":7,"molar_heat":8,"number":9,"period":10,"phase":11,"spectral_img":12,"summary":13,"symbol":14,"shells":15,"electron_configuration":21,"electron_configuration_semantic":22,"electron_affinity":23,"electronegativity_pauling":24,"ionization_energies":25,"cpk-hex":30,"row":10,"column":31,"neutrons":32,"protons":9,"electrons":9,"radioactive":33,"natural":34,"metal":34,"nonmetal":33,"metalloid":33,"atomic_radius":35,"electronegativity":24,"first_ionization":36,"melting_point":37,"boiling_point":38,"number_of_isotopes":39,"year":40,"specific_heat":41,"n_shells":10,"n_valence":42,"covalent_radius":43},"Hafnium","steel gray",178.492,"transition metal",13.31,"Dirk Coster",25.73,72,6,"Solid","https://wikipedia.org/wiki/File:Hafnium_spectrum_visible.png","Hafnium is a chemical element with symbol Hf and atomic number 72. A lustrous, silvery gray, tetravalent transition metal, hafnium chemically resembles zirconium and is found in zirconium minerals. Its existence was predicted by Dmitri Mendeleev in 1869, though it was not identified until 1923, making it the penultimate stable element to be discovered (rhenium was identified two years later).","Hf",[16,17,18,19,20,16],2,8,18,32,10,"1s2 2s2 2p6 3s2 3p6 4s2 3d10 4p6 5s2 4d10 5p6 6s2 4f14 5d2","[Xe] 4f14 5d2 6s2",17.18,1.3,[26,27,28,29],658.5,1440,2250,3216,"4dc2ff",4,106,false,true,2.2,6.8251,2500.15,4876,17,1923,0.144,null,1.75],"uses":{"params":["slug"]}}]}
