{"type":"data","nodes":[null,{"type":"data","data":[{"element":1},{"name":2,"appearance":3,"atomic_mass":4,"category":5,"density":6,"discoverer":7,"molar_heat":8,"number":9,"period":10,"phase":11,"spectral_img":12,"summary":13,"symbol":14,"shells":15,"electron_configuration":20,"electron_configuration_semantic":21,"electron_affinity":22,"electronegativity_pauling":23,"ionization_energies":24,"cpk-hex":37,"row":10,"column":38,"neutrons":39,"protons":9,"electrons":9,"radioactive":40,"natural":41,"metal":41,"nonmetal":40,"metalloid":40,"atomic_radius":42,"electronegativity":23,"first_ionization":43,"melting_point":44,"boiling_point":45,"number_of_isotopes":46,"year":47,"specific_heat":48,"n_shells":10,"n_valence":12,"covalent_radius":49},"Yttrium","silvery white",88.905842,"transition metal",4.472,"Johan Gadolin",26.53,39,5,"Solid",null,"Yttrium is a chemical element with symbol Y and atomic number 39. It is a silvery-metallic transition metal chemically similar to the lanthanides and it has often been classified as a \"rare earth element\". Yttrium is almost always found combined with the lanthanides in rare earth minerals and is never found in nature as a free element.","Y",[16,17,18,19,16],2,8,18,9,"1s2 2s2 2p6 3s2 3p6 4s2 3d10 4p6 5s2 4d1","[Kr] 4d1 5s2",29.6,1.22,[25,26,27,28,29,30,31,32,33,34,35,36],600,1180,1980,5847,7430,8970,11190,12450,14110,18400,19900,36090,"94ffff",3,50,false,true,2.3,6.2173,1799.15,3609,21,1794,0.298,1.9],"uses":{"params":["slug"]}}]}
