{"type":"data","nodes":[null,{"type":"data","data":[{"element":1},{"name":2,"appearance":3,"atomic_mass":4,"category":5,"density":6,"discoverer":7,"molar_heat":8,"number":9,"period":10,"phase":11,"spectral_img":12,"summary":13,"symbol":14,"shells":15,"electron_configuration":17,"electron_configuration_semantic":18,"electron_affinity":19,"electronegativity_pauling":20,"ionization_energies":21,"cpk-hex":29,"row":10,"column":30,"neutrons":9,"protons":9,"electrons":9,"radioactive":31,"natural":32,"metal":31,"nonmetal":32,"metalloid":31,"atomic_radius":33,"electronegativity":20,"first_ionization":34,"melting_point":35,"boiling_point":36,"number_of_isotopes":37,"year":38,"specific_heat":39,"n_shells":10,"n_valence":16,"covalent_radius":40},"Nitrogen","colorless gas, liquid or solid",14.007,"diatomic nonmetal",0.001251,"Daniel Rutherford",null,7,2,"Gas","https://wikipedia.org/wiki/File:Nitrogen_Spectra.jpg","Nitrogen is a chemical element with symbol N and atomic number 7. It is the lightest pnictogen and at room temperature, it is a transparent, odorless diatomic gas. Nitrogen is a common element in the universe, estimated at about seventh in total abundance in the Milky Way and the Solar System.","N",[10,16],5,"1s2 2s2 2p3","[He] 2s2 2p3",-6.8,3.04,[22,23,24,25,26,27,28],1402.3,2856,4578.1,7475,9444.9,53266.6,64360,"3050f8",15,false,true,0.75,14.5341,63.29,77.36,8,1772,1.04,0.71],"uses":{"params":["slug"]}}]}
