{"type":"data","nodes":[null,{"type":"data","data":[{"element":1},{"name":2,"appearance":3,"atomic_mass":4,"category":5,"density":6,"discoverer":7,"molar_heat":8,"number":9,"period":10,"phase":11,"spectral_img":12,"summary":13,"symbol":14,"shells":15,"electron_configuration":16,"electron_configuration_semantic":16,"electron_affinity":17,"electronegativity_pauling":8,"ionization_energies":18,"cpk-hex":21,"row":10,"column":22,"neutrons":9,"protons":9,"electrons":9,"radioactive":23,"natural":24,"metal":23,"nonmetal":24,"metalloid":23,"atomic_radius":25,"electronegativity":8,"first_ionization":26,"melting_point":8,"boiling_point":27,"number_of_isotopes":28,"year":29,"specific_heat":30,"n_shells":10,"n_valence":8,"covalent_radius":31},"Helium","colorless gas, exhibiting a red-orange glow when placed in a high-voltage electric field",4.0026022,"noble gas",0.0001786,"Pierre Janssen",null,2,1,"Gas","https://wikipedia.org/wiki/File:Helium_spectrum.jpg","Helium is a chemical element with symbol He and atomic number 2. It is a colorless, odorless, tasteless, non-toxic, inert, monatomic gas that heads the noble gas group in the periodic table. Its boiling and melting points are the lowest among all the elements.","He",[9],"1s2",-48,[19,20],2372.3,5250.5,"d9ffff",18,false,true,0.49,24.5874,4.22,5,1868,5.193,0.28],"uses":{"params":["slug"]}}]}
