{"type":"data","nodes":[null,{"type":"data","data":[{"element":1},{"name":2,"appearance":3,"atomic_mass":4,"category":5,"density":6,"discoverer":7,"molar_heat":8,"number":9,"period":10,"phase":11,"spectral_img":12,"summary":13,"symbol":14,"shells":15,"electron_configuration":19,"electron_configuration_semantic":20,"electron_affinity":21,"electronegativity_pauling":22,"ionization_energies":23,"cpk-hex":30,"row":10,"column":31,"neutrons":32,"protons":9,"electrons":9,"radioactive":33,"natural":34,"metal":33,"nonmetal":33,"metalloid":34,"atomic_radius":35,"electronegativity":22,"first_ionization":36,"melting_point":37,"boiling_point":38,"number_of_isotopes":39,"year":40,"specific_heat":41,"n_shells":10,"n_valence":10,"covalent_radius":42},"Antimony","silvery lustrous gray",121.7601,"metalloid",6.697,"before 3000 BC",25.23,51,5,"Solid",null,"Antimony is a chemical element with symbol Sb (from Latin:stibium) and atomic number 51. A lustrous gray metalloid, it is found in nature mainly as the sulfide mineral stibnite (Sb2S3). Antimony compounds have been known since ancient times and were used for cosmetics; metallic antimony was also known, but it was erroneously identified as lead upon its discovery.","Sb",[16,17,18,18,10],2,8,18,"1s2 2s2 2p6 3s2 3p6 4s2 3d10 4p6 5s2 4d10 5p3","[Kr] 4d10 5s2 5p3",101.059,2.05,[24,25,26,27,28,29],834,1594.9,2440,4260,5400,10400,"9e63b5",15,71,false,true,1.5,8.6084,904.05,1860,29,"~1600 BC",0.207,1.39],"uses":{"params":["slug"]}}]}
