{"type":"data","nodes":[null,{"type":"data","data":[{"element":1},{"name":2,"appearance":3,"atomic_mass":4,"category":5,"density":6,"discoverer":7,"molar_heat":8,"number":9,"period":10,"phase":11,"spectral_img":12,"summary":13,"symbol":14,"shells":15,"electron_configuration":20,"electron_configuration_semantic":21,"electron_affinity":22,"electronegativity_pauling":23,"ionization_energies":24,"cpk-hex":26,"row":10,"column":18,"neutrons":27,"protons":9,"electrons":9,"radioactive":28,"natural":28,"metal":28,"nonmetal":29,"metalloid":29,"atomic_radius":30,"electronegativity":8,"first_ionization":31,"melting_point":32,"boiling_point":33,"number_of_isotopes":34,"year":35,"specific_heat":36,"n_shells":10,"n_valence":17,"covalent_radius":37},"Radon","colorless gas, occasionally glows green or red in discharge tubes",222,"noble gas",0.00973,"Friedrich Ernst Dorn",null,86,6,"Gas","https://wikipedia.org/wiki/File:Radon_spectrum.png","Radon is a chemical element with symbol Rn and atomic number 86. It is a radioactive, colorless, odorless, tasteless noble gas, occurring naturally as a decay product of radium. Its most stable isotope, 222Rn, has a half-life of 3.8 days.","Rn",[16,17,18,19,18,17],2,8,18,32,"1s2 2s2 2p6 3s2 3p6 4s2 3d10 4p6 5s2 4d10 5p6 6s2 4f14 5d10 6p6","[Xe] 4f14 5d10 6s2 6p6",-68,2.2,[25],1037,"428296",136,true,false,1.3,10.7485,202.15,211.3,20,1900,0.094,1.5],"uses":{"params":["slug"]}}]}
