{"type":"data","nodes":[null,{"type":"data","data":[{"element":1},{"name":2,"appearance":3,"atomic_mass":4,"category":5,"density":6,"discoverer":7,"molar_heat":8,"number":9,"period":10,"phase":11,"spectral_img":12,"summary":13,"symbol":14,"shells":15,"electron_configuration":21,"electron_configuration_semantic":22,"electron_affinity":23,"electronegativity_pauling":24,"ionization_energies":25,"cpk-hex":31,"row":10,"column":32,"neutrons":33,"protons":9,"electrons":9,"radioactive":34,"natural":35,"metal":35,"nonmetal":34,"metalloid":34,"atomic_radius":36,"electronegativity":37,"first_ionization":38,"melting_point":39,"boiling_point":40,"number_of_isotopes":41,"year":42,"specific_heat":43,"n_shells":10,"n_valence":20,"covalent_radius":44},"Lead","metallic gray",207.21,"post-transition metal",11.34,"Middle East",26.65,82,6,"Solid",null,"Lead (/l…õd/) is a chemical element in the carbon group with symbol Pb (from Latin:plumbum) and atomic number 82. Lead is a soft, malleable and heavy post-transition metal. Metallic lead has a bluish-white color after being freshly cut, but it soon tarnishes to a dull grayish color when exposed to air.","Pb",[16,17,18,19,18,20],2,8,18,32,4,"1s2 2s2 2p6 3s2 3p6 4s2 3d10 4p6 5s2 4d10 5p6 6s2 4f14 5d10 6p2","[Xe] 4f14 5d10 6s2 6p2",34.4204,1.87,[26,27,28,29,30],715.6,1450.5,3081.5,4083,6640,"575961",14,125,false,true,1.8,2.33,7.4167,600.75,2022,29,"~5000 BC",0.129,1.46],"uses":{"params":["slug"]}}]}
