{"type":"data","nodes":[null,{"type":"data","data":[{"element":1},{"name":2,"appearance":3,"atomic_mass":4,"category":5,"density":6,"discoverer":7,"molar_heat":8,"number":9,"period":10,"phase":11,"spectral_img":12,"summary":13,"symbol":14,"shells":15,"electron_configuration":22,"electron_configuration_semantic":23,"electron_affinity":24,"electronegativity_pauling":25,"ionization_energies":26,"cpk-hex":29,"row":10,"column":30,"neutrons":31,"protons":9,"electrons":9,"radioactive":32,"natural":33,"metal":33,"nonmetal":32,"metalloid":32,"atomic_radius":34,"electronegativity":25,"first_ionization":35,"melting_point":36,"boiling_point":37,"number_of_isotopes":19,"year":38,"specific_heat":39,"n_shells":10,"n_valence":12,"covalent_radius":40},"Platinum","silvery white",195.0849,"transition metal",21.45,"Antonio de Ulloa",25.86,78,6,"Solid",null,"Platinum is a chemical element with symbol Pt and atomic number 78. It is a dense, malleable, ductile, highly unreactive, precious, gray-white transition metal. Its name is derived from the Spanish term platina, which is literally translated into \"little silver\".","Pt",[16,17,18,19,20,21],2,8,18,32,17,1,"1s2 2s2 2p6 3s2 3p6 4s2 3d10 4p6 5s2 4d10 5p6 6s1 4f14 5d9","[Xe] 4f14 5d9 6s1",205.041,2.28,[27,28],870,1791,"d0d0e0",10,117,false,true,1.8,8.9587,2045.15,4098,1735,0.133,1.36],"uses":{"params":["slug"]}}]}
