{"type":"data","nodes":[null,{"type":"data","data":[{"element":1},{"name":2,"appearance":3,"atomic_mass":4,"category":5,"density":6,"discoverer":7,"molar_heat":8,"number":9,"period":10,"phase":11,"spectral_img":12,"summary":13,"symbol":14,"shells":15,"electron_configuration":21,"electron_configuration_semantic":22,"electron_affinity":23,"electronegativity_pauling":24,"ionization_energies":25,"cpk-hex":27,"row":28,"column":29,"neutrons":30,"protons":9,"electrons":9,"radioactive":31,"natural":32,"metal":31,"nonmetal":33,"metalloid":33,"atomic_radius":32,"electronegativity":34,"first_ionization":35,"melting_point":36,"boiling_point":37,"number_of_isotopes":38,"year":39,"specific_heat":32,"n_shells":10,"n_valence":32,"covalent_radius":40},"Americium","silvery white",243,"actinide",12,"Glenn Seaborg",62.7,95,7,"Solid","https://wikipedia.org/wiki/File:Americium_spectrum_visible.png","Americium is a radioactive transuranic chemical element with symbol Am and atomic number 95. This member of the actinide series is located in the periodic table under the lanthanide element europium, and thus by analogy was named after the Americas. Americium was first produced in 1944 by the group of Glenn T.Seaborg from Berkeley, California, at the metallurgical laboratory of University of Chicago.","Am",[16,17,18,19,20,17,16],2,8,18,32,25,"1s2 2s2 2p6 3s2 3p6 4s2 3d10 4p6 5s2 4d10 5p6 6s2 4f14 5d10 6p6 7s2 5f7","[Rn] 5f7 7s2",9.93,1.13,[26],578,"545cf2",10,9,148,true,null,false,1.3,5.9738,1267.15,2880,133,1944,1.8],"uses":{"params":["slug"]}}]}
