{"type":"data","nodes":[null,{"type":"data","data":[{"element":1},{"name":2,"appearance":3,"atomic_mass":4,"category":5,"density":6,"discoverer":7,"molar_heat":3,"number":8,"period":9,"phase":10,"spectral_img":3,"summary":11,"symbol":12,"shells":13,"electron_configuration":15,"electron_configuration_semantic":16,"electron_affinity":17,"electronegativity_pauling":18,"ionization_energies":19,"cpk-hex":29,"row":9,"column":30,"neutrons":31,"protons":8,"electrons":8,"radioactive":32,"natural":33,"metal":32,"nonmetal":33,"metalloid":32,"atomic_radius":34,"electronegativity":18,"first_ionization":35,"melting_point":36,"boiling_point":37,"number_of_isotopes":38,"year":39,"specific_heat":40,"n_shells":9,"n_valence":14,"covalent_radius":34},"Fluorine",null,18.9984031636,"diatomic nonmetal",0.001696,"André-Marie Ampère",9,2,"Gas","Fluorine is a chemical element with symbol F and atomic number 9. It is the lightest halogen and exists as a highly toxic pale yellow diatomic gas at standard conditions. As the most electronegative element, it is extremely reactive:almost all other elements, including some noble gases, form compounds with fluorine.","F",[9,14],7,"1s2 2s2 2p5","[He] 2s2 2p5",328.1649,3.98,[20,21,22,23,24,25,26,27,28],1681,3374.2,6050.4,8407.7,11022.7,15164.1,17868,92038.1,106434.3,"90e050",17,10,false,true,0.57,17.4228,53.63,85.03,6,1886,0.824],"uses":{"params":["slug"]}}]}
