{"type":"data","nodes":[null,{"type":"data","data":[{"element":1},{"name":2,"appearance":3,"atomic_mass":4,"category":5,"density":6,"discoverer":7,"molar_heat":8,"number":9,"period":10,"phase":11,"spectral_img":12,"summary":13,"symbol":14,"shells":15,"electron_configuration":21,"electron_configuration_semantic":22,"electron_affinity":23,"electronegativity_pauling":24,"ionization_energies":25,"cpk-hex":30,"row":20,"column":31,"neutrons":32,"protons":9,"electrons":9,"radioactive":33,"natural":34,"metal":34,"nonmetal":33,"metalloid":33,"atomic_radius":35,"electronegativity":24,"first_ionization":36,"melting_point":37,"boiling_point":38,"number_of_isotopes":39,"year":40,"specific_heat":41,"n_shells":10,"n_valence":12,"covalent_radius":42},"Gadolinium","silvery white",157.253,"lanthanide",7.9,"Jean de Marignac",37.03,64,6,"Solid",null,"Gadolinium is a chemical element with symbol Gd and atomic number 64. It is a silvery-white, malleable and ductile rare-earth metal. It is found in nature only in combined (salt) form.","Gd",[16,17,18,19,20,16],2,8,18,25,9,"1s2 2s2 2p6 3s2 3p6 4s2 3d10 4p6 5s2 4d10 5p6 6s2 4f7 5d1","[Xe] 4f7 5d1 6s2",13.22,1.2,[26,27,28,29],593.4,1170,1990,4250,"45ffc7",10,93,false,true,2.5,6.1501,1585.15,3546,17,1880,0.236,1.96],"uses":{"params":["slug"]}}]}
