{"type":"data","nodes":[null,{"type":"data","data":[{"element":1},{"name":2,"appearance":3,"atomic_mass":4,"category":5,"density":6,"discoverer":7,"molar_heat":8,"number":9,"period":10,"phase":11,"spectral_img":12,"summary":13,"symbol":14,"shells":15,"electron_configuration":20,"electron_configuration_semantic":21,"electron_affinity":22,"electronegativity_pauling":23,"ionization_energies":24,"cpk-hex":29,"row":30,"column":31,"neutrons":32,"protons":9,"electrons":9,"radioactive":33,"natural":34,"metal":34,"nonmetal":33,"metalloid":33,"atomic_radius":35,"electronegativity":36,"first_ionization":37,"melting_point":38,"boiling_point":39,"number_of_isotopes":40,"year":41,"specific_heat":42,"n_shells":10,"n_valence":12,"covalent_radius":43},"Terbium","silvery white",158.925352,"lanthanide",8.23,"Carl Gustaf Mosander",28.91,65,6,"Solid",null,"Terbium is a chemical element with symbol Tb and atomic number 65. It is a silvery-white rare earth metal that is malleable, ductile and soft enough to be cut with a knife. Terbium is never found in nature as a free element, but it is contained in many minerals, including cerite, gadolinite, monazite, xenotime and euxenite.","Tb",[16,17,18,19,17,16],2,8,18,27,"1s2 2s2 2p6 3s2 3p6 4s2 3d10 4p6 5s2 4d10 5p6 6s2 4f9","[Xe] 4f9 6s2",112.4,1.1,[25,26,27,28],565.8,1110,2114,3839,"30ffc7",9,11,94,false,true,2.5,1.2,5.8638,1630.15,3503,24,1843,0.182,1.94],"uses":{"params":["slug"]}}]}
