{"type":"data","nodes":[null,{"type":"data","data":[{"element":1},{"name":2,"appearance":3,"atomic_mass":4,"category":5,"density":6,"discoverer":7,"molar_heat":3,"number":8,"period":9,"phase":10,"spectral_img":3,"summary":11,"symbol":12,"shells":13,"electron_configuration":19,"electron_configuration_semantic":20,"electron_affinity":21,"electronegativity_pauling":22,"ionization_energies":23,"cpk-hex":25,"row":26,"column":27,"neutrons":28,"protons":8,"electrons":8,"radioactive":29,"natural":3,"metal":29,"nonmetal":30,"metalloid":30,"atomic_radius":3,"electronegativity":3,"first_ionization":3,"melting_point":3,"boiling_point":3,"number_of_isotopes":31,"year":32,"specific_heat":3,"n_shells":9,"n_valence":3,"covalent_radius":3},"Lawrencium",null,266,"actinide",14.4,"Lawrence Berkeley Laboratory",103,7,"Solid","Lawrencium is a synthetic chemical element with chemical symbol Lr (formerly Lw) and atomic number 103. It is named in honor of Ernest Lawrence, inventor of the cyclotron, a device that was used to discover many artificial radioactive elements. A radioactive metal, lawrencium is the eleventh transuranic element and is also the final member of the actinide series.","Lr",[14,15,16,17,17,15,18],2,8,18,32,3,"1s2 2s2 2p6 3s2 3p6 4s2 3d10 4p6 5s2 4d10 5p6 6s2 4f14 5d10 6p6 7s2 5f14 7p1","[Rn] 5f14 7s2 7p1",-30.04,1.3,[24],470,"c70066",10,17,159,true,false,203,1961],"uses":{"params":["slug"]}}]}
