{"type":"data","nodes":[null,{"type":"data","data":[{"element":1},{"name":2,"appearance":3,"atomic_mass":4,"category":5,"density":6,"discoverer":7,"molar_heat":8,"number":9,"period":10,"phase":11,"spectral_img":12,"summary":13,"symbol":14,"shells":15,"electron_configuration":20,"electron_configuration_semantic":21,"electron_affinity":22,"electronegativity_pauling":23,"ionization_energies":24,"cpk-hex":30,"row":10,"column":31,"neutrons":32,"protons":9,"electrons":9,"radioactive":33,"natural":34,"metal":34,"nonmetal":33,"metalloid":33,"atomic_radius":35,"electronegativity":23,"first_ionization":36,"melting_point":37,"boiling_point":38,"number_of_isotopes":39,"year":40,"specific_heat":41,"n_shells":10,"n_valence":19,"covalent_radius":42},"Tin","silvery-white (beta, β) or gray (alpha, α)",118.7107,"post-transition metal",7.365,"before 3500 BC",27.112,50,5,"Solid",null,"Tin is a chemical element with the symbol Sn (for Latin:stannum) and atomic number 50. It is a main group metal in group 14 of the periodic table. Tin shows a chemical similarity to both neighboring group-14 elements, germanium and lead, and has two possible oxidation states, +2 and the slightly more stable +4.","Sn",[16,17,18,18,19],2,8,18,4,"1s2 2s2 2p6 3s2 3p6 4s2 3d10 4p6 5s2 4d10 5p2","[Kr] 4d10 5s2 5p2",107.2984,1.96,[25,26,27,28,29],708.6,1411.8,2943,3930.3,7456,"668080",14,69,false,true,1.7,7.3439,505.21,2875,28,"~3500 BC",0.228,1.39],"uses":{"params":["slug"]}}]}
