{"type":"data","nodes":[null,{"type":"data","data":[{"element":1},{"name":2,"appearance":3,"atomic_mass":4,"category":5,"density":6,"discoverer":7,"molar_heat":8,"number":9,"period":10,"phase":11,"spectral_img":12,"summary":13,"symbol":14,"shells":15,"electron_configuration":19,"electron_configuration_semantic":20,"electron_affinity":21,"electronegativity_pauling":22,"ionization_energies":23,"cpk-hex":45,"row":10,"column":46,"neutrons":47,"protons":9,"electrons":9,"radioactive":48,"natural":49,"metal":49,"nonmetal":48,"metalloid":48,"atomic_radius":50,"electronegativity":22,"first_ionization":51,"melting_point":52,"boiling_point":53,"number_of_isotopes":54,"year":55,"specific_heat":56,"n_shells":10,"n_valence":12,"covalent_radius":57},"Scandium","silvery white",44.9559085,"transition metal",2.985,"Lars Fredrik Nilson",25.52,21,4,"Solid",null,"Scandium is a chemical element with symbol Sc and atomic number 21. A silvery-white metallic d-block element, it has historically been sometimes classified as a rare earth element, together with yttrium and the lanthanoids. It was discovered in 1879 by spectral analysis of the minerals euxenite and gadolinite from Scandinavia.","Sc",[16,17,18,16],2,8,9,"1s2 2s2 2p6 3s2 3p6 4s2 3d1","[Ar] 3d1 4s2",18,1.36,[24,25,26,27,28,29,30,31,32,33,34,35,36,37,38,39,40,41,42,43,44],633.1,1235,2388.6,7090.6,8843,10679,13310,15250,17370,21726,24102,66320,73010,80160,89490,97400,105600,117000,124270,547530,582163,"e6e6e6",3,24,false,true,2.1,6.5615,1812.15,3109,15,1878,0.568,1.7],"uses":{"params":["slug"]}}]}
