{"type":"data","nodes":[null,{"type":"data","data":[{"element":1},{"name":2,"appearance":3,"atomic_mass":4,"category":5,"density":6,"discoverer":7,"molar_heat":8,"number":9,"period":10,"phase":11,"spectral_img":12,"summary":13,"symbol":14,"shells":15,"electron_configuration":17,"electron_configuration_semantic":18,"electron_affinity":19,"electronegativity_pauling":20,"ionization_energies":21,"cpk-hex":27,"row":10,"column":28,"neutrons":29,"protons":9,"electrons":9,"radioactive":30,"natural":31,"metal":30,"nonmetal":30,"metalloid":31,"atomic_radius":32,"electronegativity":20,"first_ionization":33,"melting_point":34,"boiling_point":35,"number_of_isotopes":29,"year":36,"specific_heat":37,"n_shells":10,"n_valence":16,"covalent_radius":38},"Boron","black-brown",10.81,"metalloid",2.08,"Joseph Gay-Lussac",11.087,5,2,"Solid",null,"Boron is a metalloid chemical element with symbol B and atomic number 5. Produced entirely by cosmic ray spallation and supernovae and not by stellar nucleosynthesis, it is a low-abundance element in both the Solar system and the Earth's crust. Boron is concentrated on Earth by the water-solubility of its more common naturally occurring compounds, the borate minerals.","B",[10,16],3,"1s2 2s2 2p1","[He] 2s2 2p1",26.989,2.04,[22,23,24,25,26],800.6,2427.1,3659.7,25025.8,32826.7,"ffb5b5",13,6,false,true,1.2,8.298,2573.15,4200,1808,1.026,0.84],"uses":{"params":["slug"]}}]}
