{"type":"data","nodes":[null,{"type":"data","data":[{"element":1},{"name":2,"appearance":3,"atomic_mass":4,"category":5,"density":6,"discoverer":7,"molar_heat":8,"number":9,"period":10,"phase":11,"spectral_img":8,"summary":12,"symbol":13,"shells":14,"electron_configuration":19,"electron_configuration_semantic":20,"electron_affinity":21,"electronegativity_pauling":22,"ionization_energies":23,"cpk-hex":28,"row":29,"column":30,"neutrons":31,"protons":9,"electrons":9,"radioactive":32,"natural":8,"metal":32,"nonmetal":33,"metalloid":33,"atomic_radius":34,"electronegativity":22,"first_ionization":35,"melting_point":36,"boiling_point":37,"number_of_isotopes":38,"year":39,"specific_heat":8,"n_shells":10,"n_valence":8,"covalent_radius":40},"Promethium","metallic",145,"lanthanide",7.26,"Chien Shiung Wu",null,61,6,"Solid","Promethium, originally prometheum, is a chemical element with the symbol Pm and atomic number 61. All of its isotopes are radioactive; it is one of only two such elements that are followed in the periodic table by elements with stable forms, a distinction shared with technetium. Chemically, promethium is a lanthanide, which forms salts when combined with other elements.","Pm",[15,16,17,18,16,15],2,8,18,23,"1s2 2s2 2p6 3s2 3p6 4s2 3d10 4p6 5s2 4d10 5p6 6s2 4f5","[Xe] 4f5 6s2",12.45,1.13,[24,25,26,27],540,1050,2150,3970,"a3ffc7",9,7,84,true,false,2.6,5.582,1204.15,3273,14,1945,1.99],"uses":{"params":["slug"]}}]}
