{"type":"data","nodes":[null,{"type":"data","data":[{"element":1},{"name":2,"appearance":3,"atomic_mass":4,"category":5,"density":6,"discoverer":7,"molar_heat":8,"number":9,"period":10,"phase":11,"spectral_img":8,"summary":12,"symbol":13,"shells":14,"electron_configuration":20,"electron_configuration_semantic":21,"electron_affinity":22,"electronegativity_pauling":23,"ionization_energies":24,"cpk-hex":26,"row":27,"column":28,"neutrons":29,"protons":9,"electrons":9,"radioactive":30,"natural":8,"metal":30,"nonmetal":31,"metalloid":31,"atomic_radius":8,"electronegativity":23,"first_ionization":32,"melting_point":33,"boiling_point":8,"number_of_isotopes":34,"year":35,"specific_heat":8,"n_shells":10,"n_valence":8,"covalent_radius":8},"Einsteinium","silver-colored",252,"actinide",8.84,"Lawrence Berkeley Laboratory",null,99,7,"Solid","Einsteinium is a synthetic element with symbol Es and atomic number 99. It is the seventh transuranic element, and an actinide. Einsteinium was discovered as a component of the debris of the first hydrogen bomb explosion in 1952, and named after Albert Einstein.","Es",[15,16,17,18,19,16,15],2,8,18,32,29,"1s2 2s2 2p6 3s2 3p6 4s2 3d10 4p6 5s2 4d10 5p6 6s2 4f14 5d10 6p6 7s2 5f11","[Rn] 5f11 7s2",-28.6,1.3,[25],619,"b31fd4",10,13,153,true,false,6.42,1133.15,123,1952],"uses":{"params":["slug"]}}]}
