{"type":"data","nodes":[null,{"type":"data","data":[{"element":1},{"name":2,"appearance":3,"atomic_mass":4,"category":5,"density":6,"discoverer":7,"molar_heat":8,"number":9,"period":10,"phase":11,"spectral_img":12,"summary":13,"symbol":14,"shells":15,"electron_configuration":20,"electron_configuration_semantic":21,"electron_affinity":22,"electronegativity_pauling":23,"ionization_energies":24,"cpk-hex":49,"row":10,"column":50,"neutrons":51,"protons":9,"electrons":9,"radioactive":52,"natural":53,"metal":53,"nonmetal":52,"metalloid":52,"atomic_radius":54,"electronegativity":23,"first_ionization":55,"melting_point":56,"boiling_point":57,"number_of_isotopes":58,"year":59,"specific_heat":60,"n_shells":10,"n_valence":12,"covalent_radius":61},"Chromium","silvery metallic",51.99616,"transition metal",7.19,"Louis Nicolas Vauquelin",23.35,24,4,"Solid",null,"Chromium is a chemical element with symbol Cr and atomic number 24. It is the first element in Group 6. It is a steely-gray, lustrous, hard and brittle metal which takes a high polish, resists tarnishing, and has a high melting point.","Cr",[16,17,18,19],2,8,13,1,"1s2 2s2 2p6 3s2 3p6 4s1 3d5","[Ar] 3d5 4s1",65.21,1.66,[25,26,27,28,29,30,31,32,33,34,35,36,37,38,39,40,41,42,43,44,45,46,47,48],652.9,1590.6,2987,4743,6702,8744.9,15455,17820,20190,23580,26130,28750,34230,37066,97510,105800,114300,125300,134700,144300,157700,166090,721870,761733,"8a99c7",6,28,false,true,1.9,6.7665,2130.15,2944,9,1797,0.449,1.39],"uses":{"params":["slug"]}}]}
