{"type":"data","nodes":[null,{"type":"data","data":[{"element":1},{"name":2,"appearance":3,"atomic_mass":4,"category":5,"density":6,"discoverer":7,"molar_heat":8,"number":9,"period":10,"phase":11,"spectral_img":12,"summary":13,"symbol":14,"shells":15,"electron_configuration":21,"electron_configuration_semantic":22,"electron_affinity":23,"electronegativity_pauling":24,"ionization_energies":25,"cpk-hex":30,"row":10,"column":31,"neutrons":32,"protons":9,"electrons":9,"radioactive":33,"natural":34,"metal":34,"nonmetal":33,"metalloid":33,"atomic_radius":16,"electronegativity":24,"first_ionization":35,"melting_point":36,"boiling_point":37,"number_of_isotopes":38,"year":39,"specific_heat":40,"n_shells":10,"n_valence":12,"covalent_radius":41},"Rhenium","silvery-grayish",186.2071,"transition metal",21.02,"Masataka Ogawa",25.48,75,6,"Solid",null,"Rhenium is a chemical element with symbol Re and atomic number 75. It is a silvery-white, heavy, third-row transition metal in group 7 of the periodic table. With an estimated average concentration of 1 part per billion (ppb), rhenium is one of the rarest elements in the Earth's crust.","Re",[16,17,18,19,20,16],2,8,18,32,13,"1s2 2s2 2p6 3s2 3p6 4s2 3d10 4p6 5s2 4d10 5p6 6s2 4f14 5d5","[Xe] 4f14 5d5 6s2",5.8273,1.9,[26,27,28,29],760,1260,2510,3640,"267dab",7,111,false,true,7.8335,3453.15,5869,21,1925,0.137,1.51],"uses":{"params":["slug"]}}]}
