{"type":"data","nodes":[null,{"type":"data","data":[{"element":1},{"name":2,"appearance":3,"atomic_mass":4,"category":5,"density":6,"discoverer":7,"molar_heat":8,"number":9,"period":10,"phase":11,"spectral_img":12,"summary":13,"symbol":14,"shells":15,"electron_configuration":21,"electron_configuration_semantic":22,"electron_affinity":23,"electronegativity_pauling":24,"ionization_energies":25,"cpk-hex":28,"row":10,"column":29,"neutrons":30,"protons":9,"electrons":9,"radioactive":31,"natural":32,"metal":32,"nonmetal":31,"metalloid":31,"atomic_radius":33,"electronegativity":24,"first_ionization":34,"melting_point":35,"boiling_point":36,"number_of_isotopes":37,"year":38,"specific_heat":39,"n_shells":10,"n_valence":12,"covalent_radius":40},"Gold","metallic yellow",196.9665695,"transition metal",19.3,"Middle East",25.418,79,6,"Solid",null,"Gold is a chemical element with symbol Au (from Latin:aurum) and atomic number 79. In its purest form, it is a bright, slightly reddish yellow, dense, soft, malleable and ductile metal. Chemically, gold is a transition metal and a group 11 element.","Au",[16,17,18,19,18,20],2,8,18,32,1,"1s2 2s2 2p6 3s2 3p6 4s2 3d10 4p6 5s2 4d10 5p6 6s1 4f14 5d10","[Xe] 4f14 5d10 6s1",222.747,2.54,[26,27],890.1,1980,"ffd123",11,118,false,true,1.8,9.2255,1337.73,3129,21,"unknown",0.129,1.36],"uses":{"params":["slug"]}}]}
