{"type":"data","nodes":[null,{"type":"data","data":[{"element":1},{"name":2,"appearance":3,"atomic_mass":4,"category":5,"density":6,"discoverer":7,"molar_heat":8,"number":9,"period":10,"phase":11,"spectral_img":12,"summary":13,"symbol":14,"shells":15,"electron_configuration":21,"electron_configuration_semantic":22,"electron_affinity":23,"electronegativity_pauling":24,"ionization_energies":25,"cpk-hex":29,"row":10,"column":17,"neutrons":30,"protons":9,"electrons":9,"radioactive":31,"natural":32,"metal":32,"nonmetal":31,"metalloid":31,"atomic_radius":33,"electronegativity":24,"first_ionization":34,"melting_point":35,"boiling_point":36,"number_of_isotopes":37,"year":38,"specific_heat":39,"n_shells":10,"n_valence":12,"covalent_radius":40},"Ruthenium","silvery white metallic",101.072,"transition metal",12.45,"Karl Ernst Claus",24.06,44,5,"Solid",null,"Ruthenium is a chemical element with symbol Ru and atomic number 44. It is a rare transition metal belonging to the platinum group of the periodic table. Like the other metals of the platinum group, ruthenium is inert to most other chemicals.","Ru",[16,17,18,19,20],2,8,18,15,1,"1s2 2s2 2p6 3s2 3p6 4s2 3d10 4p6 5s1 4d7","[Kr] 4d7 5s1",100.96,2.2,[26,27,28],710.2,1620,2747,"248f8f",57,false,true,1.9,7.3605,2523.15,4423,16,1844,0.238,1.46],"uses":{"params":["slug"]}}]}
