{"type":"data","nodes":[null,{"type":"data","data":[{"element":1},{"name":2,"appearance":3,"atomic_mass":4,"category":5,"density":6,"discoverer":7,"molar_heat":3,"number":8,"period":9,"phase":10,"spectral_img":3,"summary":11,"symbol":12,"shells":13,"electron_configuration":19,"electron_configuration_semantic":20,"electron_affinity":21,"electronegativity_pauling":3,"ionization_energies":22,"cpk-hex":3,"row":9,"column":23,"neutrons":24,"protons":8,"electrons":8,"radioactive":25,"natural":3,"metal":25,"nonmetal":26,"metalloid":26,"atomic_radius":3,"electronegativity":3,"first_ionization":3,"melting_point":3,"boiling_point":3,"number_of_isotopes":3,"year":27,"specific_heat":3,"n_shells":9,"n_valence":3,"covalent_radius":3},"Roentgenium",null,282,"transition metal",28.7,"Gesellschaft für Schwerionenforschung",111,7,"Solid","Roentgenium is a chemical element with symbol Rg and atomic number 111. It is an extremely radioactive synthetic element (an element that can be created in a laboratory but is not found in nature); the most stable known isotope, roentgenium-282, has a half-life of 2.1 minutes. Roentgenium was first created in 1994 by the GSI Helmholtz Centre for Heavy Ion Research near Darmstadt, Germany.","Rg",[14,15,16,17,17,18,14],2,8,18,32,17,"1s2 2s2 2p6 3s2 3p6 4s2 3d10 4p6 5s2 4d10 5p6 6s2 4f14 5d10 6p6 7s2 5f14 6d9","*[Rn] 5f14 6d10 7s1",151,[],11,161,true,false,1994],"uses":{"params":["slug"]}}]}
