{"type":"data","nodes":[null,{"type":"data","data":[{"element":1},{"name":2,"appearance":3,"atomic_mass":4,"category":5,"density":6,"discoverer":7,"molar_heat":8,"number":9,"period":10,"phase":11,"spectral_img":12,"summary":13,"symbol":14,"shells":15,"electron_configuration":19,"electron_configuration_semantic":20,"electron_affinity":21,"electronegativity_pauling":22,"ionization_energies":23,"cpk-hex":27,"row":10,"column":28,"neutrons":29,"protons":9,"electrons":9,"radioactive":30,"natural":31,"metal":31,"nonmetal":30,"metalloid":30,"atomic_radius":32,"electronegativity":22,"first_ionization":33,"melting_point":34,"boiling_point":35,"number_of_isotopes":36,"year":37,"specific_heat":38,"n_shells":10,"n_valence":12,"covalent_radius":39},"Cadmium","silvery bluish-gray metallic",112.4144,"transition metal",8.65,"Karl Hermann",26.02,48,5,"Solid",null,"Cadmium is a chemical element with symbol Cd and atomic number 48. This soft, bluish-white metal is chemically similar to the two other stable metals in group 12, zinc and mercury. Like zinc, it prefers oxidation state +2 in most of its compounds and like mercury it shows a low melting point compared to transition metals.","Cd",[16,17,18,18,16],2,8,18,"1s2 2s2 2p6 3s2 3p6 4s2 3d10 4p6 5s2 4d10","[Kr] 4d10 5s2",-68,1.69,[24,25,26],867.8,1631.4,3616,"ffd98f",12,64,false,true,1.7,8.9938,594.33,1040,22,1817,0.232,1.44],"uses":{"params":["slug"]}}]}
