{"type":"data","nodes":[null,{"type":"data","data":[{"element":1},{"name":2,"appearance":3,"atomic_mass":4,"category":5,"density":6,"discoverer":7,"molar_heat":3,"number":8,"period":9,"phase":10,"spectral_img":3,"summary":11,"symbol":12,"shells":13,"electron_configuration":18,"electron_configuration_semantic":19,"electron_affinity":20,"electronegativity_pauling":3,"ionization_energies":21,"cpk-hex":3,"row":9,"column":22,"neutrons":23,"protons":8,"electrons":8,"radioactive":24,"natural":3,"metal":25,"nonmetal":24,"metalloid":25,"atomic_radius":3,"electronegativity":3,"first_ionization":3,"melting_point":3,"boiling_point":3,"number_of_isotopes":3,"year":26,"specific_heat":3,"n_shells":9,"n_valence":9,"covalent_radius":3},"Tennessine",null,294,"metalloid",7.17,"Joint Institute for Nuclear Research",117,7,"Solid","Tennessine is a superheavy artificial chemical element with an atomic number of 117 and a symbol of Ts. Also known as eka-astatine or element 117, it is the second-heaviest known element and penultimate element of the 7th period of the periodic table. As of 2016, fifteen tennessine atoms have been observed:six when it was first synthesized in 2010, seven in 2012, and two in 2014.","Ts",[14,15,16,17,17,16,9],2,8,18,32,"1s2 2s2 2p6 3s2 3p6 4s2 3d10 4p6 5s2 4d10 5p6 6s2 4f14 5d10 6p6 7s2 5f14 6d10 7p5","*[Rn] 5f14 6d10 7s2 7p5",165.9,[],17,178,true,false,2010],"uses":{"params":["slug"]}}]}
