{"type":"data","nodes":[null,{"type":"data","data":[{"element":1},{"name":2,"appearance":3,"atomic_mass":4,"category":5,"density":6,"discoverer":7,"molar_heat":8,"number":9,"period":10,"phase":11,"spectral_img":12,"summary":13,"symbol":14,"shells":15,"electron_configuration":21,"electron_configuration_semantic":22,"electron_affinity":23,"electronegativity_pauling":24,"ionization_energies":25,"cpk-hex":29,"row":10,"column":30,"neutrons":31,"protons":9,"electrons":9,"radioactive":32,"natural":33,"metal":33,"nonmetal":32,"metalloid":32,"atomic_radius":34,"electronegativity":35,"first_ionization":36,"melting_point":37,"boiling_point":38,"number_of_isotopes":39,"year":40,"specific_heat":41,"n_shells":10,"n_valence":20,"covalent_radius":42},"Thallium","silvery white",204.38,"post-transition metal",11.85,"William Crookes",26.32,81,6,"Solid",null,"Thallium is a chemical element with symbol Tl and atomic number 81. This soft gray post-transition metal is not found free in nature. When isolated, it resembles tin, but discolors when exposed to air.","Tl",[16,17,18,19,18,20],2,8,18,32,3,"1s2 2s2 2p6 3s2 3p6 4s2 3d10 4p6 5s2 4d10 5p6 6s2 4f14 5d10 6p1","[Xe] 4f14 5d10 6s2 6p1",36.4,1.62,[26,27,28],589.4,1971,2878,"a6544d",13,123,false,true,2.1,2.04,6.1082,577.15,1746,28,1861,0.129,1.45],"uses":{"params":["slug"]}}]}
