{"type":"data","nodes":[null,{"type":"data","data":[{"element":1},{"name":2,"appearance":3,"atomic_mass":4,"category":5,"density":6,"discoverer":7,"molar_heat":8,"number":9,"period":10,"phase":11,"spectral_img":12,"summary":13,"symbol":14,"shells":15,"electron_configuration":21,"electron_configuration_semantic":22,"electron_affinity":23,"electronegativity_pauling":24,"ionization_energies":25,"cpk-hex":29,"row":10,"column":30,"neutrons":31,"protons":9,"electrons":9,"radioactive":32,"natural":33,"metal":33,"nonmetal":32,"metalloid":32,"atomic_radius":34,"electronegativity":24,"first_ionization":35,"melting_point":36,"boiling_point":37,"number_of_isotopes":38,"year":39,"specific_heat":40,"n_shells":10,"n_valence":12,"covalent_radius":41},"Rhodium","silvery white metallic",102.905502,"transition metal",12.41,"William Wollaston",24.98,45,5,"Solid",null,"Rhodium is a chemical element with symbol Rh and atomic number 45. It is a rare, silvery-white, hard, and chemically inert transition metal. It is a member of the platinum group.","Rh",[16,17,18,19,20],2,8,18,16,1,"1s2 2s2 2p6 3s2 3p6 4s2 3d10 4p6 5s1 4d8","[Kr] 4d8 5s1",110.27,2.28,[26,27,28],719.7,1740,2997,"0a7d8c",9,58,false,true,1.8,7.4589,2239.15,3968,20,1803,0.243,1.42],"uses":{"params":["slug"]}}]}
