{"type":"data","nodes":[null,{"type":"data","data":[{"element":1},{"name":2,"appearance":3,"atomic_mass":4,"category":5,"density":6,"discoverer":7,"molar_heat":3,"number":8,"period":9,"phase":10,"spectral_img":3,"summary":11,"symbol":12,"shells":13,"electron_configuration":19,"electron_configuration_semantic":20,"electron_affinity":3,"electronegativity_pauling":3,"ionization_energies":21,"cpk-hex":3,"row":9,"column":22,"neutrons":23,"protons":8,"electrons":8,"radioactive":24,"natural":3,"metal":24,"nonmetal":25,"metalloid":25,"atomic_radius":3,"electronegativity":3,"first_ionization":3,"melting_point":3,"boiling_point":3,"number_of_isotopes":3,"year":26,"specific_heat":3,"n_shells":9,"n_valence":3,"covalent_radius":3},"Darmstadtium",null,281,"transition metal",34.8,"Gesellschaft für Schwerionenforschung",110,7,"Solid","Darmstadtium is a chemical element with symbol Ds and atomic number 110. It is an extremely radioactive synthetic element. The most stable known isotope, darmstadtium-281, has a half-life of approximately 10 seconds.","Ds",[14,15,16,17,17,18,14],2,8,18,32,16,"1s2 2s2 2p6 3s2 3p6 4s2 3d10 4p6 5s2 4d10 5p6 6s2 4f14 5d10 6p6 7s2 5f14 6d8","*[Rn] 5f14 6d9 7s1",[],10,161,true,false,1994],"uses":{"params":["slug"]}}]}
