{"type":"data","nodes":[null,{"type":"data","data":[{"element":1},{"name":2,"appearance":3,"atomic_mass":4,"category":5,"density":6,"discoverer":7,"molar_heat":8,"number":9,"period":10,"phase":11,"spectral_img":12,"summary":13,"symbol":14,"shells":15,"electron_configuration":19,"electron_configuration_semantic":20,"electron_affinity":21,"electronegativity_pauling":22,"ionization_energies":23,"cpk-hex":49,"row":10,"column":50,"neutrons":51,"protons":9,"electrons":9,"radioactive":52,"natural":53,"metal":53,"nonmetal":52,"metalloid":52,"atomic_radius":54,"electronegativity":22,"first_ionization":55,"melting_point":56,"boiling_point":57,"number_of_isotopes":58,"year":59,"specific_heat":60,"n_shells":10,"n_valence":12,"covalent_radius":61},"Manganese","silvery metallic",54.9380443,"transition metal",7.21,"Torbern Olof Bergman",26.32,25,4,"Solid",null,"Manganese is a chemical element with symbol Mn and atomic number 25. It is not found as a free element in nature; it is often found in combination with iron, and in many minerals. Manganese is a metal with important industrial metal alloy uses, particularly in stainless steels.","Mn",[16,17,18,16],2,8,13,"1s2 2s2 2p6 3s2 3p6 4s2 3d5","[Ar] 3d5 4s2",-50,1.55,[24,25,26,27,28,29,30,31,32,33,34,35,36,37,38,39,40,41,42,43,44,45,46,47,48],717.3,1509,3248,4940,6990,9220,11500,18770,21400,23960,27590,30330,33150,38880,41987,109480,118100,127100,138600,148500,158600,172500,181380,785450,827067,"9c7ac7",7,30,false,true,1.8,7.434,1519.15,2334,11,1774,0.479,1.39],"uses":{"params":["slug"]}}]}
