{"type":"data","nodes":[null,{"type":"data","data":[{"element":1},{"name":2,"appearance":3,"atomic_mass":4,"category":5,"density":6,"discoverer":7,"molar_heat":8,"number":9,"period":10,"phase":11,"spectral_img":12,"summary":13,"symbol":14,"shells":15,"electron_configuration":21,"electron_configuration_semantic":22,"electron_affinity":23,"electronegativity_pauling":24,"ionization_energies":25,"cpk-hex":31,"row":20,"column":32,"neutrons":33,"protons":9,"electrons":9,"radioactive":34,"natural":35,"metal":35,"nonmetal":34,"metalloid":34,"atomic_radius":36,"electronegativity":24,"first_ionization":37,"melting_point":38,"boiling_point":39,"number_of_isotopes":40,"year":41,"specific_heat":42,"n_shells":10,"n_valence":12,"covalent_radius":43},"Lutetium","silvery white",174.96681,"lanthanide",9.841,"Georges Urbain",26.86,71,6,"Solid",null,"Lutetium is a chemical element with symbol Lu and atomic number 71. It is a silvery white metal, which resists corrosion in dry, but not in moist air. It is considered the first element of the 6th-period transition metals and the last element in the lanthanide series, and is traditionally counted among the rare earths.","Lu",[16,17,18,19,20,16],2,8,18,32,9,"1s2 2s2 2p6 3s2 3p6 4s2 3d10 4p6 5s2 4d10 5p6 6s2 4f14 5d1","[Xe] 4f14 5d1 6s2",33.4,1.27,[26,27,28,29,30],523.5,1340,2022.3,4370,6445,"00ab24",17,104,false,true,2.3,5.4259,1936.15,3675,22,1907,0.154,1.87],"uses":{"params":["slug"]}}]}
