{"type":"data","nodes":[null,{"type":"data","data":[{"element":1},{"name":2,"appearance":3,"atomic_mass":4,"category":5,"density":6,"discoverer":7,"molar_heat":8,"number":9,"period":10,"phase":11,"spectral_img":12,"summary":13,"symbol":14,"shells":15,"electron_configuration":18,"electron_configuration_semantic":19,"electron_affinity":20,"electronegativity_pauling":21,"ionization_energies":22,"cpk-hex":43,"row":10,"column":16,"neutrons":9,"protons":9,"electrons":9,"radioactive":44,"natural":45,"metal":45,"nonmetal":44,"metalloid":44,"atomic_radius":46,"electronegativity":21,"first_ionization":47,"melting_point":48,"boiling_point":49,"number_of_isotopes":50,"year":51,"specific_heat":52,"n_shells":10,"n_valence":16,"covalent_radius":53},"Calcium",null,40.0784,"alkaline earth metal",1.55,"Humphry Davy",25.929,20,4,"Solid","https://wikipedia.org/wiki/File:Calcium_Spectrum.png","Calcium is a chemical element with symbol Ca and atomic number 20. Calcium is a soft gray alkaline earth metal, fifth-most-abundant element by mass in the Earth's crust. The ion Ca2+ is also the fifth-most-abundant dissolved ion in seawater by both molarity and mass, after sodium, chloride, magnesium, and sulfate.","Ca",[16,17,17,16],2,8,"1s2 2s2 2p6 3s2 3p6 4s2","[Ar] 4s2",2.37,1,[23,24,25,26,27,28,29,30,31,32,33,34,35,36,37,38,39,40,41,42],589.8,1145.4,4912.4,6491,8153,10496,12270,14206,18191,20385,57110,63410,70110,78890,86310,94000,104900,111711,494850,527762,"3dff00",false,true,2.2,6.1132,1112.15,1757,14,1808,0.647,1.76],"uses":{"params":["slug"]}}]}
