{"type":"data","nodes":[null,{"type":"data","data":[{"element":1},{"name":2,"appearance":3,"atomic_mass":4,"category":5,"density":6,"discoverer":7,"molar_heat":8,"number":9,"period":10,"phase":11,"spectral_img":8,"summary":12,"symbol":13,"shells":14,"electron_configuration":19,"electron_configuration_semantic":20,"electron_affinity":21,"electronegativity_pauling":22,"ionization_energies":23,"cpk-hex":26,"row":10,"column":15,"neutrons":27,"protons":9,"electrons":9,"radioactive":28,"natural":28,"metal":28,"nonmetal":29,"metalloid":29,"atomic_radius":8,"electronegativity":22,"first_ionization":30,"melting_point":31,"boiling_point":32,"number_of_isotopes":33,"year":34,"specific_heat":8,"n_shells":10,"n_valence":15,"covalent_radius":35},"Radium","silvery white metallic",226,"alkaline earth metal",5.5,"Pierre Curie",null,88,7,"Solid","Radium is a chemical element with symbol Ra and atomic number 88. It is the sixth element in group 2 of the periodic table, also known as the alkaline earth metals. Pure radium is almost colorless, but it readily combines with nitrogen (rather than oxygen) on exposure to air, forming a black surface layer of radium nitride (Ra3N2).","Ra",[15,16,17,18,17,16,15],2,8,18,32,"1s2 2s2 2p6 3s2 3p6 4s2 3d10 4p6 5s2 4d10 5p6 6s2 4f14 5d10 6p6 7s2","[Rn] 7s2",9.6485,0.9,[24,25],509.3,979,"007d00",138,true,false,5.2784,973.15,2010,15,1898,2.21],"uses":{"params":["slug"]}}]}
