{"type":"data","nodes":[null,{"type":"data","data":[{"element":1},{"name":2,"appearance":3,"atomic_mass":4,"category":5,"density":6,"discoverer":7,"molar_heat":3,"number":8,"period":9,"phase":10,"spectral_img":3,"summary":11,"symbol":12,"shells":13,"electron_configuration":18,"electron_configuration_semantic":19,"electron_affinity":20,"electronegativity_pauling":21,"ionization_energies":22,"cpk-hex":31,"row":9,"column":32,"neutrons":33,"protons":8,"electrons":8,"radioactive":34,"natural":35,"metal":34,"nonmetal":35,"metalloid":34,"atomic_radius":36,"electronegativity":21,"first_ionization":37,"melting_point":38,"boiling_point":39,"number_of_isotopes":40,"year":41,"specific_heat":42,"n_shells":9,"n_valence":17,"covalent_radius":43},"Bromine",null,79.904,"diatomic nonmetal",3.1028,"Antoine Balard",35,4,"Liquid","Bromine (from Ancient Greek:βρῶμος, brómos, meaning \"stench\") is a chemical element with symbol Br, and atomic number 35. It is a halogen. The element was isolated independently by two chemists, Carl Jacob Löwig and Antoine Jerome Balard, in 1825–1826.","Br",[14,15,16,17],2,8,18,7,"1s2 2s2 2p6 3s2 3p6 4s2 3d10 4p5","[Ar] 3d10 4s2 4p5",324.537,2.96,[23,24,25,26,27,28,29,30],1139.9,2103,3470,4560,5760,8550,9940,18600,"a62929",17,45,false,true,1.1,11.8138,266.05,332,19,1826,0.474,1.2],"uses":{"params":["slug"]}}]}
