{"type":"data","nodes":[null,{"type":"data","data":[{"element":1},{"name":2,"appearance":3,"atomic_mass":4,"category":5,"density":6,"discoverer":7,"molar_heat":8,"number":9,"period":10,"phase":11,"spectral_img":12,"summary":13,"symbol":14,"shells":15,"electron_configuration":21,"electron_configuration_semantic":22,"electron_affinity":23,"electronegativity_pauling":24,"ionization_energies":25,"cpk-hex":28,"row":10,"column":10,"neutrons":29,"protons":9,"electrons":9,"radioactive":30,"natural":31,"metal":31,"nonmetal":30,"metalloid":30,"atomic_radius":16,"electronegativity":24,"first_ionization":32,"melting_point":33,"boiling_point":34,"number_of_isotopes":35,"year":36,"specific_heat":37,"n_shells":10,"n_valence":12,"covalent_radius":38},"Tungsten","grayish white, lustrous",183.841,"transition metal",19.25,"Carl Wilhelm Scheele",24.27,74,6,"Solid",null,"Tungsten, also known as wolfram, is a chemical element with symbol W and atomic number 74. The word tungsten comes from the Swedish language 'tung sten', which directly translates to heavy stone. Its name in Swedish is volfram, however, in order to distinguish it from scheelite, which in Swedish is alternatively named tungsten.","W",[16,17,18,19,20,16],2,8,18,32,12,"1s2 2s2 2p6 3s2 3p6 4s2 3d10 4p6 5s2 4d10 5p6 6s2 4f14 5d4","[Xe] 4f14 5d4 6s2",78.76,2.36,[26,27],770,1700,"2194d6",110,false,true,7.864,3680.15,5828,22,1783,0.132,1.62],"uses":{"params":["slug"]}}]}
