{"type":"data","nodes":[null,{"type":"data","data":[{"element":1},{"name":2,"appearance":3,"atomic_mass":4,"category":5,"density":6,"discoverer":7,"molar_heat":8,"number":9,"period":10,"phase":11,"spectral_img":12,"summary":13,"symbol":14,"shells":15,"electron_configuration":19,"electron_configuration_semantic":20,"electron_affinity":21,"electronegativity_pauling":22,"ionization_energies":23,"cpk-hex":50,"row":10,"column":17,"neutrons":51,"protons":9,"electrons":9,"radioactive":52,"natural":53,"metal":53,"nonmetal":52,"metalloid":52,"atomic_radius":54,"electronegativity":22,"first_ionization":55,"melting_point":56,"boiling_point":57,"number_of_isotopes":58,"year":59,"specific_heat":60,"n_shells":10,"n_valence":61,"covalent_radius":62},"Iron","lustrous metallic with a grayish tinge",55.8452,"transition metal",7.874,"5000 BC",25.1,26,4,"Solid","https://wikipedia.org/wiki/File:Iron_Spectrum.jpg","Iron is a chemical element with symbol Fe (from Latin:ferrum) and atomic number 26. It is a metal in the first transition series. It is by mass the most common element on Earth, forming much of Earth's outer and inner core.","Fe",[16,17,18,16],2,8,14,"1s2 2s2 2p6 3s2 3p6 4s2 3d6","[Ar] 3d6 4s2",14.785,1.83,[24,25,26,27,28,29,30,31,32,33,34,35,36,37,38,39,40,41,42,43,44,45,46,47,48,49],762.5,1561.9,2957,5290,7240,9560,12060,14580,22540,25290,28000,31920,34830,37840,44100,47206,122200,131000,140500,152600,163000,173600,188100,195200,851800,895161,"e06633",30,false,true,1.7,7.9024,1808.15,3134,10,"~5000 BC",0.449,null,1.32],"uses":{"params":["slug"]}}]}
