{"type":"data","nodes":[null,{"type":"data","data":[{"element":1},{"name":2,"appearance":3,"atomic_mass":4,"category":5,"density":6,"discoverer":7,"molar_heat":8,"number":9,"period":10,"phase":11,"spectral_img":3,"summary":12,"symbol":13,"shells":14,"electron_configuration":19,"electron_configuration_semantic":20,"electron_affinity":21,"electronegativity_pauling":22,"ionization_energies":23,"cpk-hex":31,"row":10,"column":32,"neutrons":33,"protons":9,"electrons":9,"radioactive":34,"natural":35,"metal":34,"nonmetal":34,"metalloid":35,"atomic_radius":36,"electronegativity":22,"first_ionization":37,"melting_point":38,"boiling_point":39,"number_of_isotopes":40,"year":41,"specific_heat":42,"n_shells":10,"n_valence":18,"covalent_radius":43},"Tellurium",null,127.603,"metalloid",6.24,"Franz von Reichenstein",25.73,52,5,"Solid","Tellurium is a chemical element with symbol Te and atomic number 52. It is a brittle, mildly toxic, rare, silver-white metalloid. Tellurium is chemically related to selenium and sulfur.","Te",[15,16,17,17,18],2,8,18,6,"1s2 2s2 2p6 3s2 3p6 4s2 3d10 4p6 5s2 4d10 5p4","[Kr] 4d10 5s2 5p4",190.161,2.1,[24,25,26,27,28,29,30],869.3,1790,2698,3610,5668,6820,13200,"d47a00",16,76,false,true,1.4,9.0096,722.8,1261,29,1782,0.202,1.38],"uses":{"params":["slug"]}}]}
