{"type":"data","nodes":[null,{"type":"data","data":[{"element":1},{"name":2,"appearance":3,"atomic_mass":4,"category":5,"density":6,"discoverer":7,"molar_heat":8,"number":9,"period":10,"phase":11,"spectral_img":12,"summary":13,"symbol":14,"shells":15,"electron_configuration":20,"electron_configuration_semantic":21,"electron_affinity":22,"electronegativity_pauling":23,"ionization_energies":24,"cpk-hex":32,"row":10,"column":33,"neutrons":34,"protons":9,"electrons":9,"radioactive":35,"natural":36,"metal":35,"nonmetal":36,"metalloid":35,"atomic_radius":37,"electronegativity":23,"first_ionization":38,"melting_point":39,"boiling_point":40,"number_of_isotopes":41,"year":42,"specific_heat":43,"n_shells":10,"n_valence":19,"covalent_radius":37},"Selenium","black, red, and gray (not pictured) allotropes",78.9718,"polyatomic nonmetal",4.81,"Jöns Berzelius",25.363,34,4,"Solid",null,"Selenium is a chemical element with symbol Se and atomic number 34. It is a nonmetal with properties that are intermediate between those of its periodic table column-adjacent chalcogen elements sulfur and tellurium. It rarely occurs in its elemental state in nature, or as pure ore compounds.","Se",[16,17,18,19],2,8,18,6,"1s2 2s2 2p6 3s2 3p6 4s2 3d10 4p4","[Ar] 3d10 4s2 4p4",194.9587,2.55,[25,26,27,28,29,30,31],941,2045,2973.7,4144,6590,7880,14990,"ffa100",16,45,false,true,1.2,9.7524,494.15,958,20,1817,0.321],"uses":{"params":["slug"]}}]}
