{"type":"data","nodes":[null,{"type":"data","data":[{"element":1},{"name":2,"appearance":3,"atomic_mass":4,"category":5,"density":6,"discoverer":7,"molar_heat":8,"number":9,"period":10,"phase":11,"spectral_img":12,"summary":13,"symbol":14,"shells":15,"electron_configuration":19,"electron_configuration_semantic":20,"electron_affinity":21,"electronegativity_pauling":22,"ionization_energies":23,"cpk-hex":29,"row":10,"column":30,"neutrons":31,"protons":9,"electrons":9,"radioactive":32,"natural":33,"metal":32,"nonmetal":32,"metalloid":33,"atomic_radius":34,"electronegativity":22,"first_ionization":35,"melting_point":36,"boiling_point":37,"number_of_isotopes":38,"year":39,"specific_heat":40,"n_shells":10,"n_valence":10,"covalent_radius":41},"Germanium","grayish-white",72.6308,"metalloid",5.323,"Clemens Winkler",23.222,32,4,"Solid",null,"Germanium is a chemical element with symbol Ge and atomic number 32. It is a lustrous, hard, grayish-white metalloid in the carbon group, chemically similar to its group neighbors tin and silicon. Purified germanium is a semiconductor, with an appearance most similar to elemental silicon.","Ge",[16,17,18,10],2,8,18,"1s2 2s2 2p6 3s2 3p6 4s2 3d10 4p2","[Ar] 3d10 4s2 4p2",118.9352,2.01,[24,25,26,27,28],762,1537.5,3302.1,4411,9020,"668f8f",14,41,false,true,1.5,7.8994,1211.45,3106,17,1886,0.32,1.2],"uses":{"params":["slug"]}}]}
