{"type":"data","nodes":[null,{"type":"data","data":[{"element":1},{"name":2,"appearance":3,"atomic_mass":4,"category":5,"density":6,"discoverer":7,"molar_heat":8,"number":9,"period":10,"phase":11,"spectral_img":12,"summary":13,"symbol":14,"shells":15,"electron_configuration":19,"electron_configuration_semantic":20,"electron_affinity":21,"electronegativity_pauling":22,"ionization_energies":23,"cpk-hex":46,"row":10,"column":10,"neutrons":47,"protons":9,"electrons":9,"radioactive":48,"natural":49,"metal":49,"nonmetal":48,"metalloid":48,"atomic_radius":16,"electronegativity":22,"first_ionization":50,"melting_point":51,"boiling_point":52,"number_of_isotopes":53,"year":54,"specific_heat":55,"n_shells":10,"n_valence":12,"covalent_radius":56},"Titanium","silvery grey-white metallic",47.8671,"transition metal",4.506,"William Gregor",25.06,22,4,"Solid",null,"Titanium is a chemical element with symbol Ti and atomic number 22. It is a lustrous transition metal with a silver color, low density and high strength. It is highly resistant to corrosion in sea water, aqua regia and chlorine.","Ti",[16,17,18,16],2,8,10,"1s2 2s2 2p6 3s2 3p6 4s2 3d2","[Ar] 3d2 4s2",7.289,1.54,[24,25,26,27,28,29,30,31,32,33,34,35,36,37,38,39,40,41,42,43,44,45],658.8,1309.8,2652.5,4174.6,9581,11533,13590,16440,18530,20833,25575,28125,76015,83280,90880,100700,109100,117800,129900,137530,602930,639294,"bfc2c7",26,false,true,6.8281,1933.15,3560,9,1791,0.523,1.6],"uses":{"params":["slug"]}}]}
