{"type":"data","nodes":[null,{"type":"data","data":[{"element":1},{"name":2,"appearance":3,"atomic_mass":4,"category":5,"density":6,"discoverer":7,"molar_heat":8,"number":9,"period":10,"phase":11,"spectral_img":12,"summary":13,"symbol":14,"shells":15,"electron_configuration":19,"electron_configuration_semantic":20,"electron_affinity":21,"electronegativity_pauling":22,"ionization_energies":23,"cpk-hex":47,"row":10,"column":48,"neutrons":49,"protons":9,"electrons":9,"radioactive":50,"natural":51,"metal":51,"nonmetal":50,"metalloid":50,"atomic_radius":52,"electronegativity":22,"first_ionization":53,"melting_point":54,"boiling_point":55,"number_of_isotopes":56,"year":57,"specific_heat":58,"n_shells":10,"n_valence":12,"covalent_radius":59},"Vanadium","blue-silver-grey metal",50.94151,"transition metal",6,"Andrés Manuel del Río",24.89,23,4,"Solid",null,"Vanadium is a chemical element with symbol V and atomic number 23. It is a hard, silvery grey, ductile and malleable transition metal. The element is found only in chemically combined form in nature, but once isolated artificially, the formation of an oxide layer stabilizes the free metal somewhat against further oxidation.","V",[16,17,18,16],2,8,11,"1s2 2s2 2p6 3s2 3p6 4s2 3d3","[Ar] 3d3 4s2",50.911,1.63,[24,25,26,27,28,29,30,31,32,33,34,35,36,37,38,39,40,41,42,43,44,45,46],650.9,1414,2830,4507,6298.7,12363,14530,16730,19860,22240,24670,29730,32446,86450,94170,102300,112700,121600,130700,143400,151440,661050,699144,"a6a6ab",5,28,false,true,1.9,6.7462,2175.15,3680,9,1801,0.489,1.53],"uses":{"params":["slug"]}}]}
