{"type":"data","nodes":[null,{"type":"data","data":[{"element":1},{"name":2,"appearance":3,"atomic_mass":4,"category":5,"density":6,"discoverer":7,"molar_heat":8,"number":9,"period":10,"phase":11,"spectral_img":12,"summary":13,"symbol":14,"shells":15,"electron_configuration":19,"electron_configuration_semantic":20,"electron_affinity":21,"electronegativity_pauling":22,"ionization_energies":23,"cpk-hex":40,"row":10,"column":9,"neutrons":9,"protons":9,"electrons":9,"radioactive":41,"natural":42,"metal":41,"nonmetal":42,"metalloid":41,"atomic_radius":43,"electronegativity":22,"first_ionization":44,"melting_point":45,"boiling_point":46,"number_of_isotopes":47,"year":48,"specific_heat":49,"n_shells":10,"n_valence":18,"covalent_radius":50},"Sulfur","lemon yellow sintered microcrystals",32.06,"polyatomic nonmetal",2.07,"Ancient china",22.75,16,3,"Solid","https://wikipedia.org/wiki/File:Sulfur_Spectrum.jpg","Sulfur or sulphur (see spelling differences) is a chemical element with symbol S and atomic number 16. It is an abundant, multivalent non-metal. Under normal conditions, sulfur atoms form cyclic octatomic molecules with chemical formula S8.","S",[16,17,18],2,8,6,"1s2 2s2 2p6 3s2 3p4","[Ne] 3s2 3p4",200.4101,2.58,[24,25,26,27,28,29,30,31,32,33,34,35,36,37,38,39],999.6,2252,3357,4556,7004.3,8495.8,27107,31719,36621,43177,48710,54460,62930,68216,311048,337138,"ffff30",false,true,1.1,10.36,388.51,717.8,10,1809,0.71,1.05],"uses":{"params":["slug"]}}]}
