{"type":"data","nodes":[null,{"type":"data","data":[{"element":1},{"name":2,"appearance":3,"atomic_mass":4,"category":5,"density":6,"discoverer":7,"molar_heat":8,"number":9,"period":10,"phase":11,"spectral_img":12,"summary":13,"symbol":14,"shells":15,"electron_configuration":19,"electron_configuration_semantic":20,"electron_affinity":21,"electronegativity_pauling":22,"ionization_energies":23,"cpk-hex":39,"row":10,"column":9,"neutrons":40,"protons":9,"electrons":9,"radioactive":41,"natural":42,"metal":41,"nonmetal":42,"metalloid":41,"atomic_radius":43,"electronegativity":22,"first_ionization":44,"melting_point":45,"boiling_point":46,"number_of_isotopes":47,"year":48,"specific_heat":49,"n_shells":10,"n_valence":18,"covalent_radius":50},"Phosphorus","colourless, waxy white, yellow, scarlet, red, violet, black",30.9737619985,"polyatomic nonmetal",1.823,"Hennig Brand",23.824,15,3,"Solid",null,"Phosphorus is a chemical element with symbol P and atomic number 15. As an element, phosphorus exists in two major forms—white phosphorus and red phosphorus—but due to its high reactivity, phosphorus is never found as a free element on Earth. Instead phosphorus-containing minerals are almost always present in their maximally oxidised state, as inorganic phosphate rocks.","P",[16,17,18],2,8,5,"1s2 2s2 2p6 3s2 3p3","[Ne] 3s2 3p3",72.037,2.19,[24,25,26,27,28,29,30,31,32,33,34,35,36,37,38],1011.8,1907,2914.1,4963.6,6273.9,21267,25431,29872,35905,40950,46261,54110,59024,271791,296195,"ff8000",16,false,true,1.2,10.4867,317.25,553,7,1669,0.769,1.07],"uses":{"params":["slug"]}}]}
