{"type":"data","nodes":[null,{"type":"data","data":[{"element":1},{"name":2,"appearance":3,"atomic_mass":4,"category":5,"density":6,"discoverer":7,"molar_heat":8,"number":9,"period":10,"phase":11,"spectral_img":12,"summary":13,"symbol":14,"shells":15,"electron_configuration":17,"electron_configuration_semantic":18,"electron_affinity":19,"electronegativity_pauling":8,"ionization_energies":20,"cpk-hex":31,"row":10,"column":32,"neutrons":9,"protons":9,"electrons":9,"radioactive":33,"natural":34,"metal":33,"nonmetal":34,"metalloid":33,"atomic_radius":35,"electronegativity":8,"first_ionization":36,"melting_point":37,"boiling_point":38,"number_of_isotopes":16,"year":39,"specific_heat":40,"n_shells":10,"n_valence":16,"covalent_radius":41},"Neon","colorless gas exhibiting an orange-red glow when placed in a high voltage electric field",20.17976,"noble gas",0.0009002,"Morris Travers",null,10,2,"Gas","https://wikipedia.org/wiki/File:Neon_spectra.jpg","Neon is a chemical element with symbol Ne and atomic number 10. It is in group 18 (noble gases) of the periodic table. Neon is a colorless, odorless, inert monatomic gas under standard conditions, with about two-thirds the density of air.","Ne",[10,16],8,"1s2 2s2 2p6","[He] 2s2 2p6",-116,[21,22,23,24,25,26,27,28,29,30],2080.7,3952.3,6122,9371,12177,15238,19999,23069.5,115379.5,131432,"b3e3f5",18,false,true,0.51,21.5645,24.703,27.07,1898,1.03,0.58],"uses":{"params":["slug"]}}]}
